# vtk DataFile Version 3.0
vtk output
ASCII
DATASET STRUCTURED_GRID
DIMENSIONS 102 102 1
POINTS 10404 double
0.000000e+00	0.000000e+00	0.0	1.980198e+00	0.000000e+00	0.0	3.960396e+00	0.000000e+00	0.0	5.940594e+00	0.000000e+00	0.0	7.920792e+00	0.000000e+00	0.0	9.900990e+00	0.000000e+00	0.0	1.188119e+01	0.000000e+00	0.0	1.386139e+01	0.000000e+00	0.0	1.584158e+01	0.000000e+00	0.0	1.782178e+01	0.000000e+00	0.0	1.980198e+01	0.000000e+00	0.0	2.178218e+01	0.000000e+00	0.0	2.376238e+01	0.000000e+00	0.0	2.574257e+01	0.000000e+00	0.0	2.772277e+01	0.000000e+00	0.0	2.970297e+01	0.000000e+00	0.0	3.168317e+01	0.000000e+00	0.0	3.366337e+01	0.000000e+00	0.0	3.564356e+01	0.000000e+00	0.0	3.762376e+01	0.000000e+00	0.0	3.960396e+01	0.000000e+00	0.0	4.158416e+01	0.000000e+00	0.0	4.356436e+01	0.000000e+00	0.0	4.554455e+01	0.000000e+00	0.0	4.752475e+01	0.000000e+00	0.0	4.950495e+01	0.000000e+00	0.0	5.148515e+01	0.000000e+00	0.0	5.346535e+01	0.000000e+00	0.0	5.544554e+01	0.000000e+00	0.0	5.742574e+01	0.000000e+00	0.0	5.940594e+01	0.000000e+00	0.0	6.138614e+01	0.000000e+00	0.0	6.336634e+01	0.000000e+00	0.0	6.534653e+01	0.000000e+00	0.0	6.732673e+01	0.000000e+00	0.0	6.930693e+01	0.000000e+00	0.0	7.128713e+01	0.000000e+00	0.0	7.326733e+01	0.000000e+00	0.0	7.524752e+01	0.000000e+00	0.0	7.722772e+01	0.000000e+00	0.0	7.920792e+01	0.000000e+00	0.0	8.118812e+01	0.000000e+00	0.0	8.316832e+01	0.000000e+00	0.0	8.514851e+01	0.000000e+00	0.0	8.712871e+01	0.000000e+00	0.0	8.910891e+01	0.000000e+00	0.0	9.108911e+01	0.000000e+00	0.0	9.306931e+01	0.000000e+00	0.0	9.504950e+01	0.000000e+00	0.0	9.702970e+01	0.000000e+00	0.0	9.900990e+01	0.000000e+00	0.0	1.009901e+02	0.000000e+00	0.0	1.029703e+02	0.000000e+00	0.0	1.049505e+02	0.000000e+00	0.0	1.069307e+02	0.000000e+00	0.0	1.089109e+02	0.000000e+00	0.0	1.108911e+02	0.000000e+00	0.0	1.128713e+02	0.000000e+00	0.0	1.148515e+02	0.000000e+00	0.0	1.168317e+02	0.000000e+00	0.0	1.188119e+02	0.000000e+00	0.0	1.207921e+02	0.000000e+00	0.0	1.227723e+02	0.000000e+00	0.0	1.247525e+02	0.000000e+00	0.0	1.267327e+02	0.000000e+00	0.0	1.287129e+02	0.000000e+00	0.0	1.306931e+02	0.000000e+00	0.0	1.326733e+02	0.000000e+00	0.0	1.346535e+02	0.000000e+00	0.0	1.366337e+02	0.000000e+00	0.0	1.386139e+02	0.000000e+00	0.0	1.405941e+02	0.000000e+00	0.0	1.425743e+02	0.000000e+00	0.0	1.445545e+02	0.000000e+00	0.0	1.465347e+02	0.000000e+00	0.0	1.485149e+02	0.000000e+00	0.0	1.504950e+02	0.000000e+00	0.0	1.524752e+02	0.000000e+00	0.0	1.544554e+02	0.000000e+00	0.0	1.564356e+02	0.000000e+00	0.0	1.584158e+02	0.000000e+00	0.0	1.603960e+02	0.000000e+00	0.0	1.623762e+02	0.000000e+00	0.0	1.643564e+02	0.000000e+00	0.0	1.663366e+02	0.000000e+00	0.0	1.683168e+02	0.000000e+00	0.0	1.702970e+02	0.000000e+00	0.0	1.722772e+02	0.000000e+00	0.0	1.742574e+02	0.000000e+00	0.0	1.762376e+02	0.000000e+00	0.0	1.782178e+02	0.000000e+00	0.0	1.801980e+02	0.000000e+00	0.0	1.821782e+02	0.000000e+00	0.0	1.841584e+02	0.000000e+00	0.0	1.861386e+02	0.000000e+00	0.0	1.881188e+02	0.000000e+00	0.0	1.900990e+02	0.000000e+00	0.0	1.920792e+02	0.000000e+00	0.0	1.940594e+02	0.000000e+00	0.0	1.960396e+02	0.000000e+00	0.0	1.980198e+02	0.000000e+00	0.0	2.000000e+02	0.000000e+00	0.0	0.000000e+00	1.980198e+00	0.0	1.980198e+00	1.980198e+00	0.0	3.960396e+00	1.980198e+00	0.0	5.940594e+00	1.980198e+00	0.0	7.920792e+00	1.980198e+00	0.0	9.900990e+00	1.980198e+00	0.0	1.188119e+01	1.980198e+00	0.0	1.386139e+01	1.980198e+00	0.0	1.584158e+01	1.980198e+00	0.0	1.782178e+01	1.980198e+00	0.0	1.980198e+01	1.980198e+00	0.0	2.178218e+01	1.980198e+00	0.0	2.376238e+01	1.980198e+00	0.0	2.574257e+01	1.980198e+00	0.0	2.772277e+01	1.980198e+00	0.0	2.970297e+01	1.980198e+00	0.0	3.168317e+01	1.980198e+00	0.0	3.366337e+01	1.980198e+00	0.0	3.564356e+01	1.980198e+00	0.0	3.762376e+01	1.980198e+00	0.0	3.960396e+01	1.980198e+00	0.0	4.158416e+01	1.980198e+00	0.0	4.356436e+01	1.980198e+00	0.0	4.554455e+01	1.980198e+00	0.0	4.752475e+01	1.980198e+00	0.0	4.950495e+01	1.980198e+00	0.0	5.148515e+01	1.980198e+00	0.0	5.346535e+01	1.980198e+00	0.0	5.544554e+01	1.980198e+00	0.0	5.742574e+01	1.980198e+00	0.0	5.940594e+01	1.980198e+00	0.0	6.138614e+01	1.980198e+00	0.0	6.336634e+01	1.980198e+00	0.0	6.534653e+01	1.980198e+00	0.0	6.732673e+01	1.980198e+00	0.0	6.930693e+01	1.980198e+00	0.0	7.128713e+01	1.980198e+00	0.0	7.326733e+01	1.980198e+00	0.0	7.524752e+01	1.980198e+00	0.0	7.722772e+01	1.980198e+00	0.0	7.920792e+01	1.980198e+00	0.0	8.118812e+01	1.980198e+00	0.0	8.316832e+01	1.980198e+00	0.0	8.514851e+01	1.980198e+00	0.0	8.712871e+01	1.980198e+00	0.0	8.910891e+01	1.980198e+00	0.0	9.108911e+01	1.980198e+00	0.0	9.306931e+01	1.980198e+00	0.0	9.504950e+01	1.980198e+00	0.0	9.702970e+01	1.980198e+00	0.0	9.900990e+01	1.980198e+00	0.0	1.009901e+02	1.980198e+00	0.0	1.029703e+02	1.980198e+00	0.0	1.049505e+02	1.980198e+00	0.0	1.069307e+02	1.980198e+00	0.0	1.089109e+02	1.980198e+00	0.0	1.108911e+02	1.980198e+00	0.0	1.128713e+02	1.980198e+00	0.0	1.148515e+02	1.980198e+00	0.0	1.168317e+02	1.980198e+00	0.0	1.188119e+02	1.980198e+00	0.0	1.207921e+02	1.980198e+00	0.0	1.227723e+02	1.980198e+00	0.0	1.247525e+02	1.980198e+00	0.0	1.267327e+02	1.980198e+00	0.0	1.287129e+02	1.980198e+00	0.0	1.306931e+02	1.980198e+00	0.0	1.326733e+02	1.980198e+00	0.0	1.346535e+02	1.980198e+00	0.0	1.366337e+02	1.980198e+00	0.0	1.386139e+02	1.980198e+00	0.0	1.405941e+02	1.980198e+00	0.0	1.425743e+02	1.980198e+00	0.0	1.445545e+02	1.980198e+00	0.0	1.465347e+02	1.980198e+00	0.0	1.485149e+02	1.980198e+00	0.0	1.504950e+02	1.980198e+00	0.0	1.524752e+02	1.980198e+00	0.0	1.544554e+02	1.980198e+00	0.0	1.564356e+02	1.980198e+00	0.0	1.584158e+02	1.980198e+00	0.0	1.603960e+02	1.980198e+00	0.0	1.623762e+02	1.980198e+00	0.0	1.643564e+02	1.980198e+00	0.0	1.663366e+02	1.980198e+00	0.0	1.683168e+02	1.980198e+00	0.0	1.702970e+02	1.980198e+00	0.0	1.722772e+02	1.980198e+00	0.0	1.742574e+02	1.980198e+00	0.0	1.762376e+02	1.980198e+00	0.0	1.782178e+02	1.980198e+00	0.0	1.801980e+02	1.980198e+00	0.0	1.821782e+02	1.980198e+00	0.0	1.841584e+02	1.980198e+00	0.0	1.861386e+02	1.980198e+00	0.0	1.881188e+02	1.980198e+00	0.0	1.900990e+02	1.980198e+00	0.0	1.920792e+02	1.980198e+00	0.0	1.940594e+02	1.980198e+00	0.0	1.960396e+02	1.980198e+00	0.0	1.980198e+02	1.980198e+00	0.0	2.000000e+02	1.980198e+00	0.0	0.000000e+00	3.960396e+00	0.0	1.980198e+00	3.960396e+00	0.0	3.960396e+00	3.960396e+00	0.0	5.940594e+00	3.960396e+00	0.0	7.920792e+00	3.960396e+00	0.0	9.900990e+00	3.960396e+00	0.0	1.188119e+01	3.960396e+00	0.0	1.386139e+01	3.960396e+00	0.0	1.584158e+01	3.960396e+00	0.0	1.782178e+01	3.960396e+00	0.0	1.980198e+01	3.960396e+00	0.0	2.178218e+01	3.960396e+00	0.0	2.376238e+01	3.960396e+00	0.0	2.574257e+01	3.960396e+00	0.0	2.772277e+01	3.960396e+00	0.0	2.970297e+01	3.960396e+00	0.0	3.168317e+01	3.960396e+00	0.0	3.366337e+01	3.960396e+00	0.0	3.564356e+01	3.960396e+00	0.0	3.762376e+01	3.960396e+00	0.0	3.960396e+01	3.960396e+00	0.0	4.158416e+01	3.960396e+00	0.0	4.356436e+01	3.960396e+00	0.0	4.554455e+01	3.960396e+00	0.0	4.752475e+01	3.960396e+00	0.0	4.950495e+01	3.960396e+00	0.0	5.148515e+01	3.960396e+00	0.0	5.346535e+01	3.960396e+00	0.0	5.544554e+01	3.960396e+00	0.0	5.742574e+01	3.960396e+00	0.0	5.940594e+01	3.960396e+00	0.0	6.138614e+01	3.960396e+00	0.0	6.336634e+01	3.960396e+00	0.0	6.534653e+01	3.960396e+00	0.0	6.732673e+01	3.960396e+00	0.0	6.930693e+01	3.960396e+00	0.0	7.128713e+01	3.960396e+00	0.0	7.326733e+01	3.960396e+00	0.0	7.524752e+01	3.960396e+00	0.0	7.722772e+01	3.960396e+00	0.0	7.920792e+01	3.960396e+00	0.0	8.118812e+01	3.960396e+00	0.0	8.316832e+01	3.960396e+00	0.0	8.514851e+01	3.960396e+00	0.0	8.712871e+01	3.960396e+00	0.0	8.910891e+01	3.960396e+00	0.0	9.108911e+01	3.960396e+00	0.0	9.306931e+01	3.960396e+00	0.0	9.504950e+01	3.960396e+00	0.0	9.702970e+01	3.960396e+00	0.0	9.900990e+01	3.960396e+00	0.0	1.009901e+02	3.960396e+00	0.0	1.029703e+02	3.960396e+00	0.0	1.049505e+02	3.960396e+00	0.0	1.069307e+02	3.960396e+00	0.0	1.089109e+02	3.960396e+00	0.0	1.108911e+02	3.960396e+00	0.0	1.128713e+02	3.960396e+00	0.0	1.148515e+02	3.960396e+00	0.0	1.168317e+02	3.960396e+00	0.0	1.188119e+02	3.960396e+00	0.0	1.207921e+02	3.960396e+00	0.0	1.227723e+02	3.960396e+00	0.0	1.247525e+02	3.960396e+00	0.0	1.267327e+02	3.960396e+00	0.0	1.287129e+02	3.960396e+00	0.0	1.306931e+02	3.960396e+00	0.0	1.326733e+02	3.960396e+00	0.0	1.346535e+02	3.960396e+00	0.0	1.366337e+02	3.960396e+00	0.0	1.386139e+02	3.960396e+00	0.0	1.405941e+02	3.960396e+00	0.0	1.425743e+02	3.960396e+00	0.0	1.445545e+02	3.960396e+00	0.0	1.465347e+02	3.960396e+00	0.0	1.485149e+02	3.960396e+00	0.0	1.504950e+02	3.960396e+00	0.0	1.524752e+02	3.960396e+00	0.0	1.544554e+02	3.960396e+00	0.0	1.564356e+02	3.960396e+00	0.0	1.584158e+02	3.960396e+00	0.0	1.603960e+02	3.960396e+00	0.0	1.623762e+02	3.960396e+00	0.0	1.643564e+02	3.960396e+00	0.0	1.663366e+02	3.960396e+00	0.0	1.683168e+02	3.960396e+00	0.0	1.702970e+02	3.960396e+00	0.0	1.722772e+02	3.960396e+00	0.0	1.742574e+02	3.960396e+00	0.0	1.762376e+02	3.960396e+00	0.0	1.782178e+02	3.960396e+00	0.0	1.801980e+02	3.960396e+00	0.0	1.821782e+02	3.960396e+00	0.0	1.841584e+02	3.960396e+00	0.0	1.861386e+02	3.960396e+00	0.0	1.881188e+02	3.960396e+00	0.0	1.900990e+02	3.960396e+00	0.0	1.920792e+02	3.960396e+00	0.0	1.940594e+02	3.960396e+00	0.0	1.960396e+02	3.960396e+00	0.0	1.980198e+02	3.960396e+00	0.0	2.000000e+02	3.960396e+00	0.0	0.000000e+00	5.940594e+00	0.0	1.980198e+00	5.940594e+00	0.0	3.960396e+00	5.940594e+00	0.0	5.940594e+00	5.940594e+00	0.0	7.920792e+00	5.940594e+00	0.0	9.900990e+00	5.940594e+00	0.0	1.188119e+01	5.940594e+00	0.0	1.386139e+01	5.940594e+00	0.0	1.584158e+01	5.940594e+00	0.0	1.782178e+01	5.940594e+00	0.0	1.980198e+01	5.940594e+00	0.0	2.178218e+01	5.940594e+00	0.0	2.376238e+01	5.940594e+00	0.0	2.574257e+01	5.940594e+00	0.0	2.772277e+01	5.940594e+00	0.0	2.970297e+01	5.940594e+00	0.0	3.168317e+01	5.940594e+00	0.0	3.366337e+01	5.940594e+00	0.0	3.564356e+01	5.940594e+00	0.0	3.762376e+01	5.940594e+00	0.0	3.960396e+01	5.940594e+00	0.0	4.158416e+01	5.940594e+00	0.0	4.356436e+01	5.940594e+00	0.0	4.554455e+01	5.940594
[...]
POINT_DATA 10404

SCALARS Height double 1
LOOKUP_TABLE default
4.000000e+00	4.000000e+00	4.000000e+00	4.000000e+00	4.000000e+00	4.000000e+00	4.000000e+00	4.000000e+00	4.000000e+00	4.000000e+00	4.000000e+00	4.000000e+00	4.000000e+00	4.000000e+00	4.000000e+00	4.000000e+00	4.000000e+00	3.999999e+00	3.999996e+00	3.999984e+00	3.999930e+00	3.999699e+00	3.998702e+00	3.994403e+00	3.975330e+00	3.913567e+00	3.821163e+00	3.716224e+00	3.605661e+00	3.492724e+00	3.379673e+00	3.267957e+00	3.158233e+00	3.050761e+00	2.945573e+00	2.842499e+00	2.741547e+00	2.642648e+00	2.545804e+00	2.450987e+00	2.358093e+00	2.267009e+00	2.177610e+00	2.089788e+00	2.003406e+00	1.917684e+00	1.857683e+00	1.833525e+00	1.824355e+00	1.824462e+00	1.847142e+00	1.869402e+00	1.880179e+00	1.890915e+00	1.903639e+00	1.915980e+00	1.928309e+00	1.939874e+00	1.950365e+00	1.959297e+00	1.967023e+00	1.975131e+00	1.983034e+00	1.989478e+00	1.992573e+00	1.991668e+00	1.989396e+00	1.985380e+00	1.981094e+00	1.979329e+00	1.987344e+00	2.001715e+00	2.007424e+00	1.957890e+00	1.605304e+00	1.102228e+00	1.003195e+00	1.000082e+00	1.000002e+00	1.000000e+00	1.000000e+00	1.000000e+00	1.000000e+00	1.000000e+00	1.000000e+00	1.000000e+00	1.000000e+00	1.000000e+00	1.000000e+00	1.000000e+00	1.000000e+00	1.000000e+00	1.000000e+00	1.000000e+00	1.000000e+00	1.000000e+00	1.000000e+00	1.000000e+00	1.000000e+00	1.000000e+00	1.000000e+00	1.000000e+00	4.000000e+00	4.000000e+00	4.000000e+00	4.000000e+00	4.000000e+00	4.000000e+00	4.000000e+00	4.000000e+00	4.000000e+00	4.000000e+00	4.000000e+00	4.000000e+00	4.000000e+00	4.000000e+00	4.000000e+00	4.000000e+00	4.000000e+00	4.000000e+00	3.999998e+00	3.999993e+00	3.999972e+00	3.999875e+00	3.999432e+00	3.997149e+00	3.981690e+00	3.911752e+00	3.818473e+00	3.714723e+00	3.605691e+00	3.493711e+00	3.381331e+00	3.270330e+00	3.161413e+00	3.054579e+00	2.949872e+00	2.847322e+00	2.746815e+00	2.648321e+00	2.551817e+00	2.457260e+00	2.364544e+00	2.273619e+00	2.184373e+00	2.096676e+00	2.010397e+00	1.924744e+00	1.865063e+00	1.840893e+00	1.831650e+00	1.831179e+00	1.853736e+00	1.876005e+00	1.886783e+00	1.896816e+00	1.907966e+00	1.918777e+00	1.930074e+00	1.941192e+00	1.951647e+00	1.960680e+00	1.968364e+00	1.976109e+00	1.983554e+00	1.989948e+00	1.994276e+00	1.995088e+00	1.994215e+00	1.991261e+00	1.988596e+00	1.988206e+00	1.996658e+00	2.009266e+00	2.014471e+00	1.979960e+00	1.593953e+00	1.050804e+00	1.000538e+00	1.000007e+00	1.000000e+00	1.000000e+00	1.000000e+00	1.000000e+00	1.000000e+00	1.000000e+00	1.000000e+00	1.000000e+00	1.000000e+00	1.000000e+00	1.000000e+00	1.000000e+00	1.000000e+00	1.000000e+00	1.000000e+00	1.000000e+00	1.000000e+00	1.000000e+00	1.000000e+00	1.000000e+00	1.000000e+00	1.000000e+00	1.000000e+00	1.000000e+00	4.000000e+00	4.000000e+00	4.000000e+00	4.000000e+00	4.000000e+00	4.000000e+00	4.000000e+00	4.000000e+00	4.000000e+00	4.000000e+00	4.000000e+00	4.000000e+00	4.000000e+00	4.000000e+00	4.000000e+00	4.000000e+00	4.000000e+00	4.000000e+00	3.999999e+00	3.999997e+00	3.999988e+00	3.999943e+00	3.999701e+00	3.998065e+00	3.983133e+00	3.906407e+00	3.807278e+00	3.702165e+00	3.592831e+00	3.481244e+00	3.368443e+00	3.256831e+00	3.147219e+00	3.040105e+00	2.935110e+00	2.832404e+00	2.731822e+00	2.633296e+00	2.536750e+00	2.442172e+00	2.349525e+00	2.258660e+00	2.169460e+00	2.081806e+00	1.995471e+00	1.910021e+00	1.852406e+00	1.829020e+00	1.820019e+00	1.821030e+00	1.843664e+00	1.865499e+00	1.877784e+00	1.889225e+00	1.900394e+00	1.909817e+00	1.919048e+00	1.928011e+00	1.936681e+00	1.944461e+00	1.951972e+00	1.959500e+00	1.966716e+00	1.974351e+00	1.982182e+00	1.988885e+00	1.993860e+00	1.994687e+00	1.996700e+00	1.999096e+00	2.003140e+00	2.009830e+00	2.011882e+00	1.972287e+00	1.560774e+00	1.039801e+00	1.000378e+00	1.000004e+00	1.000000e+00	1.000000e+00	1.000000e+00	1.000000e+00	1.000000e+00	1.000000e+00	1.000000e+00	1.000000e+00	1.000000e+00	1.000000e+00	1.000000e+00	1.000000e+00	1.000000e+00	1.000000e+00	1.000000e+00	1.000000e+00	1.000000e+00	1.000000e+00	1.000000e+00	1.000000e+00	1.000000e+00	1.000000e+00	1.000000e+00	1.000000e+00	4.000000e+00	4.000000e+00	4.000000e+00	4.000000e+00	4.000000e+00	4.000000e+00	4.000000e+00	4.000000e+00	4.000000e+00	4.000000e+00	4.000000e+00	4.000000e+00	4.000000e+00	4.000000e+00	4.000000e+00	4.000000e+00	4.000000e+00	4.000000e+00	4.000000e+00	3.999999e+00	3.999995e+00	3.999973e+00	3.999814e+00	3.998428e+00	3.983196e+00	3.899939e+00	3.793735e+00	3.686393e+00	3.577906e+00	3.468747e+00	3.358977e+00	3.248757e+00	3.140335e+00	3.034179e+00	2.930324e+00	2.828615e+00	2.728966e+00	2.631245e+00	2.535429e+00	2.441466e+00	2.349271e+00	2.258767e+00	2.169846e+00	2.082410e+00	1.996220e+00	1.911369e+00	1.855812e+00	1.833014e+00	1.823993e+00	1.825886e+00	1.848120e+00	1.868571e+00	1.881423e+00	1.893371e+00	1.903667e+00	1.911834e+00	1.919660e+00	1.927300e+00	1.934666e+00	1.941327e+00	1.947421e+00	1.953226e+00	1.957966e+00	1.964515e+00	1.972704e+00	1.982338e+00	1.993229e+00	2.004435e+00	2.012801e+00	2.016331e+00	2.018982e+00	2.021801e+00	2.019938e+00	1.966631e+00	1.522622e+00	1.027604e+00	1.000320e+00	1.000003e+00	1.000000e+00	1.000000e+00	1.000000e+00	1.000000e+00	1.000000e+00	1.000000e+00	1.000000e+00	1.000000e+00	1.000000e+00	1.000000e+00	1.000000e+00	1.000000e+00	1.000000e+00	1.000000e+00	1.000000e+00	1.000000e+00	1.000000e+00	1.000000e+00	1.000000e+00	1.000000e+00	1.000000e+00	1.000000e+00	1.000000e+00	1.000000e+00	4.000000e+00	4.000000e+00	4.000000e+00	4.000000e+00	4.000000e+00	4.000000e+00	4.000000e+00	4.000000e+00	4.000000e+00	4.000000e+00	4.000000e+00	4.000000e+00	4.000000e+00	4.000000e+00	4.000000e+00	4.000000e+00	4.000000e+00	4.000000e+00	4.000000e+00	4.000000e+00	3.999998e+00	3.999983e+00	3.999846e+00	3.998383e+00	3.980772e+00	3.889289e+00	3.776893e+00	3.665822e+00	3.558190e+00	3.450725e+00	3.343654e+00	3.236231e+00	3.129057e+00	3.023526e+00	2.920369e+00	2.819335e+00	2.720308e+00	2.623200e+00	2.527956e+00	2.434507e+00	2.342762e+00	2.252653e+00	2.164076e+00	2.076905e+00	1.990973e+00	1.906833e+00	1.854490e+00	1.832911e+00	1.824135e+00	1.827909e+00	1.849445e+00	1.867631e+00	1.880375e+00	1.892811e+00	1.903319e+00	1.911601e+00	1.919354e+00	1.926837e+00	1.933936e+00	1.940553e+00	1.946634e+00	1.952390e+00	1.956960e+00	1.963246e+00	1.971937e+00	1.983761e+00	1.996073e+00	2.009601e+00	2.023799e+00	2.034262e+00	2.037635e+00	2.035379e+00	2.022339e+00	1.949265e+00	1.477731e+00	1.018956e+00	1.000263e+00	1.000003e+00	1.000000e+00	1.000000e+00	1.000000e+00	1.000000e+00	1.000000e+00	1.000000e+00	1.000000e+00	1.000000e+00	1.000000e+00	1.000000e+00	1.000000e+00	1.000000e+00	1.000000e+00	1.000000e+00	1.000000e+00	1.000000e+00	1.000000e+00	1.000000e+00	1.000000e+00	1.000000e+00	1.000000e+00	1.000000e+00	1.000000e+00	1.000000e+00	4.000000e+00	4.000000e+00	4.000000e+00	4.000000e+00	4.000000e+00	4.000000e+00	4.000000e+00	4.000000e+00	4.000000e+00	4.000000e+00	4.000000e+00	4.000000e+00	4.000000e+00	4.000000e+00	4.000000e+00	4.000000e+00	4.000000e+00	4.000000e+00	4.000000e+00	4.000000e+00	3.999998e+00	3.999983e+00	3.999812e+00	3.997900e+00	3.974290e+00	3.872882e+00	3.757044e+00	3.643241e+00	3.533835e+00	3.428502e+00	3.323489e+00	3.219463e+00	3.114990e+00	3.010756e+00	2.908230e+00	2.807828e+00	2.709403e+00	2.612915e+00	2.518292e+00	2.425438e+00	2.334249e+00	2.244643e+00	2.156538e+00	2.069759e+00	1.984265e+00	1.900967e+00	1.853171e+00	1.833436e+00	1.825130e+00	1.832962e+00	1.853865e+00	1.867213e+00	1.878322e+00	1.890823e+00	1.902122e+00	1.911171e+00	1.919343e+00	1.927300e+00	1.934755e+00	1.941354e+00	1.947860e+00	1.954260e+00	1.961044e+00	1.968615e+00	1.976376e+00	1.985440e+00	1.997429e+00	2.012851e+00	2.031148e+00	2.038280e+00	2.039416e+00	2.035185e+00	2.018441e+00	1.932193e+00	1.430271e+00	1.015552e+00	1.000204e+00	1.000002e+00	1.000000e+00	1.000000e+00	1.000000e+00	1.000000e+00	1.000000e+00	1.000000e+00	1.000000e+00	1.000000e+00	1.000000e+00	1.000000e+00	1.000000e+00	1.000000e+00	1.000000e+00	1.000000e+00	1.000000e+00	1.000000e+00	1.000000e+00	1.000000e+00	1.000000e+00	1.000000e+00	1.000000e+00	1.000000e+00	1.000000e+00	1.000000e+00	4.000000e+00	4.000000e+00	4.000000e+00	4.000000e+00	4.000000e+00	4.000000e+00	4.000000e+00	4.000000e+00	4.000000e+00	4.000000e+00	4.000000e+00	4.000000e+00	4.000000e+00	4.000000e+00	4.000000e+00	4.000000e+00	4.000000e+00	4.000000e+00	4.000000e+00	4.000000e+00	3.999998e+00	3.999976e+00	3.999726e+00	3.996768e+00	3.961053e+00	3.850530e+00	3.733624e+00	3.618640e+00	3.507784e+00	3.401734e+00	3.299535e+00	3.197639e+00	3.096873e+00	2.995337e+00	2.893994e+00	2.794276e+00	2.696463e+00	2.600577e+00	2.506580e+00	2.414344e+00	2.323769e+00	2.234750e+00	2.147227e+00	2.060986e+00	1.975928e+00	1.894071e+00	1.851523e+00	1.834257e+00	1.827231e+00	1.839825e+00	1.859626e+00	1.867652e+00	1.875899e+00	1.887784e+00	1.899804e+00	1.910387e+00	1.919884e+00	1.929008e+00	1.937567e+00	1.944611e+00	1.951928e+00	1.959844e+00	1.967999e+00	1.975409e+00	1.980963e+00	1.986541e+00	1.999129e+00	2.010768e+00	2.018744e+00	2.023238e+00	2.025324e+00	2.025974e+00	2.014700e+00	1.919737e+00	1.383242e+00	1.012056e+00	1.000143e+00	1.000001e+00	1.000000e+00	1.000000e+00	1.000000e+00	1.000000e+00	1.000000e+00	1.000000e+00	1.000000e+00	1.000000e+00	1.000000e+00	1.000000e+00	1.000000e+00	1.000000e+00	1.000000e+00	1.000000e+00	1.000000e+00	1.000000e+00	1.000000e+00	1.000000e+00	1.000000e+00	1.000000e+00	1.000000e+00	1.000000e+00	1.000000e+00	1.000000e+00	4.000000e+00	4.000000e+00	4.000000e+00	4.000000e+00	4.000000e+00	4.000000e+00	4.000000e+00	4.000000e+00	4.000000e+00	4.000000e+00	4.000000e+00	4.000000e+00	4.000000e+00	4.000000e+00	4.000000e+00	4.000000e+00	4.000000e+00	4.000000e+00	4.000000e+00	4.000000e+00	3.999996e+00	3.999959e+00	3.999519e+00	3.994216e+00	3.938320e+00	3.823296e+00	3.706233e+00	3.591244e+00	3.480055e+00	3.373276e+00	3.271514e+00	3.172206e+00	3.073188e+00	2.975642e+00	2.877026e+00	2.778603e+00	2.681587e+00	2.586350e+00	2.492993e+00	2.401396e+00	2.311477e+00	2.223123e+00	2.136271e+00	2.050697e+00	1.965824e+00	1.886984e+00	1.849417e+00	1.835145e+00	1.830433e+00	1.847480e+00	1.865987e+00	1.871287e+00	1.876542e+00	1.886115e+00	1.898233e+00	1.910469e+00	1.921928e+00	1.932181e+00	1.941852e+00	1.949915e+00	1.957978e+00	1.966093e+00	1.974478e+00	1.980596e+00	1.986693e+00	1.992491e+00	1.995913e+00	1.999519e+00	2.002179e+00	2.004331e+00	2.008472e+00	2.012318e+00	2.007640e+00	1.905712e+00	1.335140e+00	1.009047e+00	1.000096e+00	1.000001e+00	1.000000e+00	1.000000e+00	1.000000e+00	1.000000e+00	1.000000e+00	1.000000e+00	1.000000e+00	1.000000e+00	1.000000e+00	1.000000e+00	1.000000e+00	1.000000e+00	1.000000e+00	1.000000e+00	1.000000e+00	1.000000e+00	1.000000e+00	1.000000e+00	1.000000e+00	1.000000e+00	1.000000e+00	1.000000e+00	1.000000e+00	1.000000e+00	4.000000e+00	4.000000e+00	4.000000e+00	4.000000e+00	4.000000e+00	4.000000e+00	4.000000e+00	4.000000e+00	4.000000e+00	4.000000e+00	4.000000e+00	4.000000e+00	4.000000e+00	4.000000e+00	4.000000e+00	4.000000e+00	4.000000e+00	4.000000e+00	4.000000e+00	3.999999e+00	3.999993e+00	3.999921e+00	3.999048e+00	3.988664e+00	3.904867e+00	3.790056e+00	3.674702e+00	3.560456e+00	3.450284e+00	3.343744e+00	3.241543e+00	3.143064e+00	3.046272e+00	2.950102e+00	2.855430e+00	2.760236e+00	2.664593e+00	2.570333e+00	2.477691e+00	2.386745e+00	2.297504e+00	2.209872e+00	2.123790e+00	2.039046e+00	1.954395e+00	1.880071e+00	1.847241e+00	1.835628e+00	1.833628e+00	1.854749e+00	1.873322e+00	1.878253e+00	1.883816e+00	1.892808e+00	1.902809e+00	1.913749e+00	1.925299e+00	1.936324e+00	1.946806e+00	1.955402e+00	1.964332e+00	1.972178e+00	1.979703e+00	1.985735e+00	1.990163e+00	1.990496e+00	1.990621e+00	1.990186e+00	1.988041e+00	1.989171e+00	1.995126e+00	2.004636e+00	2.005179e+00	1.883425e+00	1.274167e+00	1.006010e+00	1.000053e+00	1.000000e+00	1.000000e+00	1.000000e+00	1.000000e+00	1.000000e+00	1.000000e+00	1.000000e+00	1.000000e+00	1.000000e+00	1.000000e+00	1.000000e+00	1.000000e+00	1.000000e+00	1.000000e+00	1.000000e+00	1.000000e+00	1.000000e+00	1.000000e+00	1.000000e+00	1.000000e+00	1.000000e+00	1.000000e+00	1.000000e+00	1.000000e+00	1.000000e+00	4.000000e+00	4.000000e+00	4.000000e+00	4.000000e+00	4.000000e+00	4.000000e+00	4.000000e+00	4.000000e+00	4.000000e+00	4.000000e+00	4.000000e+00	4.000000e+00	4.000000e+00	4.000000e+00	4.000000e+00	4.000000e+00	4.000000e+00	4.000000e+00	4.000000e+00	3.999999e+00	3.999986e+00	3.999829e+00	3.997867e+00	3.972108e+00	3.867454e+00	3.751246e+00	3.637509e+00	3.526036e+00	3.418083e+00	3.312953e+00	3.210671e+00	3.111753e+00	3.016049e+00	2.921632e+00	2.828181e+00	2.736298e+00	2.644599e+00	2.552151e+00	2.460627e+00	2.370524e+00	2.282046e+00	2.195227e+00	2.109960e+00	2.026250e+00	1.941865e+00	1.873758e+00	1.845447e+00	1.836001e+00	1.837679e+00	1.862407e+00	1.883048e+00	1.890449e+00	1.897368e+00	1.905681e+00	1.913736e+00	1.921661e+00	1.930196e+00	1.939788e+00	1.949483e+00	1.958130e+00	1.965947e+00	1.971477e+00	1.975610e+00	1.979339e+00	1.982928e+00	1.984550e+00	1.985888e+00	1.984118e+00	1.981550e+00	1.981020e+00	1.989202e+00	2.008663e+00	2.008218e+00	1.843522e+00	1.202863e+00	1.003583e+00	1.000028e+00	1.000000e+00	1.000000e+00	1.000000e+00	1.000000e+00	1.000000e+00	1.000000e+00	1.000000e+00	1.000000e+00	1.000000e+00	1.000000e+00	1.000000e+00	1.000000e+00	1.000000e+00	1.000000e+00	1.000000e+00	1.000000e+00	1.000000e+00	1.000000e+00	1.000000e+00	1.000000e+00	1.000000e+00	1.000000e+00	1.000000e+00	1.000000e+00	1.000000e+00	4.000000e+00	4.000000e+00	4.000000e+00	4.000000e+00	4.000000e+00	4.000000e+00	4.000000e+00	4.000000e+00	4.000000e+00	4.000000e+00	4.000000e+00	4.000000e+00	4.000000e+00	4.000000e+00	4.000000e+00	4.000000e+00	4.000000e+00	4.000000e+00	4.000000e+00	3.999997e+00	3.999967e+00	3.999585e+00	3.994734e+00	3.940390e+00	3.824996e+00	3.707524e+00	3.595265e+00	3.487494e+00	3.382952e+00	3.280470e+00	3.179349e+00	3.080264e+00	2.983768e+00	2.890170e+00	2.798275e+00	2.707482e+00	2.618286e+00	2.530009e+00	2.441220e+00	2.352484e+00	2.265083e+00	2.179236e+00	2.094934e+00	2.012483e+00	1.929105e+00	1.868373e+00	1.845054e+00	1.837646e+00	1.844670e+00	1.872717e+00	1.896519e+00	1.906053e+00	1.913256e+00	1.921142e+00	1.927839e+00	1.934125e+00	1.940433e+00	1.946142e+00	1.951452e+00	1.957071e+00	1.962185e+00	1.966085e+00	1.968889e+00	1.972055e+00	1.976705e+00	1.980065e+00	1.981991e+00	1.979231e+00	1.977150e+00	1.983743e+00	2.000632e+00	2.018541e+00	2.011554e+00	1.769588e+00	1.137776e+00	1.001727e+00	1.000013e+00	1.000000e+00	1.000000e+00	1.000000e+00	1.000000e+00	1.000000e+00	1.000000e+00	1.000000e+00	1.000000e+00	1.000000e+00	1.000000e+00	1.000000e+00	1.000000e+00	1.000000e+00	1.000000e+00	1.000000e+00	1.000000e+00	1.000000e+00	1.000000e+00	1.000000e+00	1.000000e+00	1.000000e+00	1.000000e+00	1.000000e+00	1.000000e+00	1.000000e+00	4.000000e+00	4.000000e+00	4.000000e+00	4.000000e+00	4.000000e+00	4.000000e+00	4.000000e+00	4.000000e+00	4.000000e+00	4.000000e+00	4.000000e+00	4.000000e+00	4.000000e+00	4.000000e+00	4.000000e+00	4.000000e+00	4.000000e+00	4.000000e+00	3.999999e+00	3.999993e+00	3.999914e+00	3.998905e+00	3.985481e+00	3.892727e+00	3.774541e+00	3.659146e+00	3.549505e+00	3.445431e+00	3.344542e+00	3.245100e+00	3.146364e+00	3.048380e+00	2.951910e+00	2.857947e+00	2.766324e+00	2.676639e+00	2.588392e+00	2.501620e+00	2.416028e+00	2.330958e+00	2.245678e+00	2.161364e+00	2.078458e+00	1.997562e+00	1.916608e+00	1.864410e+00	1.846627e+00	1.841624e+00	1.855794e+00	1.884582e+00	1.908692e+00	1.919812e+00	1.927957e+00	1.935946e+00	1.942065e+00	1.947744e+00	1.953177e+00	1.957611e+00	1.959537e+00	1.961347e+00	1.963464e+00	1.966343e+00	1.967729e+00	1.971739e+00	1.974871e+00	1.978142e+00	1.978769e+00	1.979985e+00	1.987708e+00	2.000747e+00	2.017511e+00	2.028253e+00	2.007643e+00	1.667597e+00	1.075743e+00	1.000616e+00	1.000006e+00	1.000000e+00	1.000000e+00	1.000000e+00	1.000000e+00	1.000000e+00	1.000000e+00	1.000000e+00	1.000000e+00	1.000000e+00	1.000000e+00	1.000000e+00	1.000000e+00	1.000000e+00	1.000000e+00	1.000000e+00	1.000000e+00	1.000000e+00	1.000000e+00	1.000000e+00	1.000000e+00	1.000000e+00	1.000000e+00	1.000000e+00	1.000000e+00	1.000000e+00	4.000000e+00	4.000000e+00	4.000000e+00	4.000000e+00	4.000000e+00	4.000000e+00	4.000000e+00	4.000000e+00	4.000000e+00	4.000000e+00	4.000000e+00	4.000000e+00	4.000000e+00	4.000000e+00	4.000000e+00	4.000000e+00	4.000000e+00	4.000000e+00	3.999998e+00	3.999980e+00	3.999750e+00	3.996695e+00	3.956972e+00	3.838770e+00	3.718467e+00	3.606318e+00	3.501244e+00	3.400776e+00	3.302943e+00	3.206415e+00	3.110659e+00	3.014773e+00	2.919650e+00	2.825535e+00	2.733801e+00	2.644528e+00	2.557042e+00	2.471273e+00	2.386925e+00	2.303835e+00	2.221811e+00	2.140214e+00	2.059617e+00	1.980683e+00	1.904812e+00	1.862689e+00	1.850255e+00	1.848812e+00	1.867348e+00	1.893440e+00	1.916292e+00	1.927579e+00	1.935775e+00	1.944622e+00	1.953113e+00	1.960332e+00	1.966397e+00	1.971752e+00	1.973631e+00	1.974281e+00	1.975282e+00	1.976592e+00	1.977261e+00	1.979613e+00	1.980511e+00	1.983196e+00	1.988150e+00	1.995052e+00	2.006457e+00	2.019125e+00	2.032423e+00	2.034760e+00	1.990414e+00	1.540705e+00	1.027132e+00	1.000296e+00	1.000003e+00	1.000000e+00	1.000000e+00	1.000000e+00	1.000000e+00	1.000000e+00	1.000000e+00	1.000000e+00	1.000000e+00	1.000000e+00	1.000000e+00	1.000000e+00	1.000000e+00	1.000000e+00	1.000000e+00	1.000000e+00	1.000000e+00	1.000000e+00	1.000000e+00	1.000000e+00	1.000000e+00	1.000000e+00	1.000000e+00	1.000000e+00	1.000000e+00	1.000000e+00	4.000000e+00	4.000000e+00	4.000000e+00	4.000000e+00	4.000000e+00	4.000000e+00	4.000000e+00	4.000000e+00	4.000000e+00	4.000000e+00	4.000000e+00	4.000000e+00	4.000000e+00	4.000000e+00	4.000000e+00	4.000000e+00	4.000000e+00	4.000000e+00	3.999995e+00	3.999937e+00	3.999164e+00	3.989458e+00	3.898899e+00	3.775904e+00	3.658290e+00	3.551420e+00	3.450971e+00	3.353828e+00	3.258509e+00	3.164439e+00	3.071286e+00	2.978414e+00	2.885744e+00	2.793199e+00	2.701674e+00	2.612012e+00	2.524841e+00	2.439630e+00	2.356204e+00	2.274309e+00	2.193871e+00	2.114799e+00	2.037289e+00	1.960550e+00	1.894515e+00	1.863838e+00	1.855778e+00	1.857935e+00	1.875912e+00	1.897819e+00	1.918224e+00	1.929638e+00	1.936770e+00	1.944059e+00	1.951848e+00	1.962334e+00	1.974830e+00	1.984504e+00	1.989578e+00	1.991064e+00	1.992130e+00	1.993102e+00	1.993429e+00	1.994084e+00	1.994340e+00	1.996510e+00	2.001588e+00	2.011435e+00	2.024485e+00	2.035565e+00	2.038846e+00	2.032634e+00	1.945492e+00	1.390299e+00	1.011558e+00	1.000129e+00	1.000001e+00	1.000000e+00	1.000000e+00	1.000000e+00	1.000000e+00	1.000000e+00	1.000000e+00	1.000000e+00	1.000000e+00	1.000000e+00	1.000000e+00	1.000000e+00	1.000000e+00	1.000000e+00	1.000000e+00	1.000000e+00	1.000000e+00	1.000000e+00	1.000000e+00	1.000000e+00	1.000000e+00	1.000000e+00	1.000000e+00	1.000000e+00	1.000000e+00	1.000000e+00	4.000000e+00	4.000000e+00	4.000000e+00	4.000000e+00	4.000000e+00	4.000000e+00	4.000000e+00	4.000000e+00	4.000000e+00	4.000000e+00	4.000000e+00	4.000000e+00	4.000000e+00	4.000000e+00	4.000000e+00	4.000000e+00	4.000000e+00	3.999999e+00	3.999983e+00	3.999766e+00	3.996745e+00	3.954639e+00	3.829835e+00	3.706684e+00	3.596048e+00	3.494983e+00	3.398706e+00	3.304581e+00	3.211531e+00	3.119541e+00	3.028592e+00	2.938845e+00	2.848542e+00	2.759079e+00	2.669283e+00	2.580500e+00	2.493163e+00	2.407950e+00	2.324757e+00	2.243456e+00	2.164045e+00	2.086457e+00	2.011417e+00	1.938189e+00	1.886785e+00	1.866159e+00	1.859994e+00	1.864768e+00	1.879823e+00	1.897229e+00	1.914648e+00	1.926609e+00	1.933226e+00	1.939317e+00	1.945573e+00	1.953979e+00	1.965186e+00	1.978735e+00	1.994359e+00	2.004814e+00	2.010575e+00	2.011342e+00	2.012027e+00	2.011467e+00	2.010439e+00	2.014178e+00	2.021362e+00	2.030610e+00	2.035220e+00	2.036148e+00	2.034614e+00	2.022441e+00	1.878808e+00	1.254398e+00	1.005397e+00	1.000048e+00	1.000000e+00	1.000000e+00	1.000000e+00	1.000000e+00	1.000000e+00	1.000000e+00	1.000000e+00	1.000000e+00	1.000000e+00	1.000000e+00	1.000000e+00	1.000000e+00	1.000000e+00	1.000000e+00	1.000000e+00	1.000000e+00	1.000000e+00	1.000000e+00	1.000000e+00	1.000000e+00	1.000000e+00	1.000000e+00	1.000000e+00	1.000000e+00	1.000000e+00	1.000000e+00	4.000000e+00	4.000000e+00	4.000000e+00	4.000000