# vtk DataFile Version 3.0
vtk output
ASCII
DATASET STRUCTURED_GRID
DIMENSIONS 102 102 1
POINTS 10404 double
0.000000e+00	0.000000e+00	0.0	1.980198e+00	0.000000e+00	0.0	3.960396e+00	0.000000e+00	0.0	5.940594e+00	0.000000e+00	0.0	7.920792e+00	0.000000e+00	0.0	9.900990e+00	0.000000e+00	0.0	1.188119e+01	0.000000e+00	0.0	1.386139e+01	0.000000e+00	0.0	1.584158e+01	0.000000e+00	0.0	1.782178e+01	0.000000e+00	0.0	1.980198e+01	0.000000e+00	0.0	2.178218e+01	0.000000e+00	0.0	2.376238e+01	0.000000e+00	0.0	2.574257e+01	0.000000e+00	0.0	2.772277e+01	0.000000e+00	0.0	2.970297e+01	0.000000e+00	0.0	3.168317e+01	0.000000e+00	0.0	3.366337e+01	0.000000e+00	0.0	3.564356e+01	0.000000e+00	0.0	3.762376e+01	0.000000e+00	0.0	3.960396e+01	0.000000e+00	0.0	4.158416e+01	0.000000e+00	0.0	4.356436e+01	0.000000e+00	0.0	4.554455e+01	0.000000e+00	0.0	4.752475e+01	0.000000e+00	0.0	4.950495e+01	0.000000e+00	0.0	5.148515e+01	0.000000e+00	0.0	5.346535e+01	0.000000e+00	0.0	5.544554e+01	0.000000e+00	0.0	5.742574e+01	0.000000e+00	0.0	5.940594e+01	0.000000e+00	0.0	6.138614e+01	0.000000e+00	0.0	6.336634e+01	0.000000e+00	0.0	6.534653e+01	0.000000e+00	0.0	6.732673e+01	0.000000e+00	0.0	6.930693e+01	0.000000e+00	0.0	7.128713e+01	0.000000e+00	0.0	7.326733e+01	0.000000e+00	0.0	7.524752e+01	0.000000e+00	0.0	7.722772e+01	0.000000e+00	0.0	7.920792e+01	0.000000e+00	0.0	8.118812e+01	0.000000e+00	0.0	8.316832e+01	0.000000e+00	0.0	8.514851e+01	0.000000e+00	0.0	8.712871e+01	0.000000e+00	0.0	8.910891e+01	0.000000e+00	0.0	9.108911e+01	0.000000e+00	0.0	9.306931e+01	0.000000e+00	0.0	9.504950e+01	0.000000e+00	0.0	9.702970e+01	0.000000e+00	0.0	9.900990e+01	0.000000e+00	0.0	1.009901e+02	0.000000e+00	0.0	1.029703e+02	0.000000e+00	0.0	1.049505e+02	0.000000e+00	0.0	1.069307e+02	0.000000e+00	0.0	1.089109e+02	0.000000e+00	0.0	1.108911e+02	0.000000e+00	0.0	1.128713e+02	0.000000e+00	0.0	1.148515e+02	0.000000e+00	0.0	1.168317e+02	0.000000e+00	0.0	1.188119e+02	0.000000e+00	0.0	1.207921e+02	0.000000e+00	0.0	1.227723e+02	0.000000e+00	0.0	1.247525e+02	0.000000e+00	0.0	1.267327e+02	0.000000e+00	0.0	1.287129e+02	0.000000e+00	0.0	1.306931e+02	0.000000e+00	0.0	1.326733e+02	0.000000e+00	0.0	1.346535e+02	0.000000e+00	0.0	1.366337e+02	0.000000e+00	0.0	1.386139e+02	0.000000e+00	0.0	1.405941e+02	0.000000e+00	0.0	1.425743e+02	0.000000e+00	0.0	1.445545e+02	0.000000e+00	0.0	1.465347e+02	0.000000e+00	0.0	1.485149e+02	0.000000e+00	0.0	1.504950e+02	0.000000e+00	0.0	1.524752e+02	0.000000e+00	0.0	1.544554e+02	0.000000e+00	0.0	1.564356e+02	0.000000e+00	0.0	1.584158e+02	0.000000e+00	0.0	1.603960e+02	0.000000e+00	0.0	1.623762e+02	0.000000e+00	0.0	1.643564e+02	0.000000e+00	0.0	1.663366e+02	0.000000e+00	0.0	1.683168e+02	0.000000e+00	0.0	1.702970e+02	0.000000e+00	0.0	1.722772e+02	0.000000e+00	0.0	1.742574e+02	0.000000e+00	0.0	1.762376e+02	0.000000e+00	0.0	1.782178e+02	0.000000e+00	0.0	1.801980e+02	0.000000e+00	0.0	1.821782e+02	0.000000e+00	0.0	1.841584e+02	0.000000e+00	0.0	1.861386e+02	0.000000e+00	0.0	1.881188e+02	0.000000e+00	0.0	1.900990e+02	0.000000e+00	0.0	1.920792e+02	0.000000e+00	0.0	1.940594e+02	0.000000e+00	0.0	1.960396e+02	0.000000e+00	0.0	1.980198e+02	0.000000e+00	0.0	2.000000e+02	0.000000e+00	0.0	0.000000e+00	1.980198e+00	0.0	1.980198e+00	1.980198e+00	0.0	3.960396e+00	1.980198e+00	0.0	5.940594e+00	1.980198e+00	0.0	7.920792e+00	1.980198e+00	0.0	9.900990e+00	1.980198e+00	0.0	1.188119e+01	1.980198e+00	0.0	1.386139e+01	1.980198e+00	0.0	1.584158e+01	1.980198e+00	0.0	1.782178e+01	1.980198e+00	0.0	1.980198e+01	1.980198e+00	0.0	2.178218e+01	1.980198e+00	0.0	2.376238e+01	1.980198e+00	0.0	2.574257e+01	1.980198e+00	0.0	2.772277e+01	1.980198e+00	0.0	2.970297e+01	1.980198e+00	0.0	3.168317e+01	1.980198e+00	0.0	3.366337e+01	1.980198e+00	0.0	3.564356e+01	1.980198e+00	0.0	3.762376e+01	1.980198e+00	0.0	3.960396e+01	1.980198e+00	0.0	4.158416e+01	1.980198e+00	0.0	4.356436e+01	1.980198e+00	0.0	4.554455e+01	1.980198e+00	0.0	4.752475e+01	1.980198e+00	0.0	4.950495e+01	1.980198e+00	0.0	5.148515e+01	1.980198e+00	0.0	5.346535e+01	1.980198e+00	0.0	5.544554e+01	1.980198e+00	0.0	5.742574e+01	1.980198e+00	0.0	5.940594e+01	1.980198e+00	0.0	6.138614e+01	1.980198e+00	0.0	6.336634e+01	1.980198e+00	0.0	6.534653e+01	1.980198e+00	0.0	6.732673e+01	1.980198e+00	0.0	6.930693e+01	1.980198e+00	0.0	7.128713e+01	1.980198e+00	0.0	7.326733e+01	1.980198e+00	0.0	7.524752e+01	1.980198e+00	0.0	7.722772e+01	1.980198e+00	0.0	7.920792e+01	1.980198e+00	0.0	8.118812e+01	1.980198e+00	0.0	8.316832e+01	1.980198e+00	0.0	8.514851e+01	1.980198e+00	0.0	8.712871e+01	1.980198e+00	0.0	8.910891e+01	1.980198e+00	0.0	9.108911e+01	1.980198e+00	0.0	9.306931e+01	1.980198e+00	0.0	9.504950e+01	1.980198e+00	0.0	9.702970e+01	1.980198e+00	0.0	9.900990e+01	1.980198e+00	0.0	1.009901e+02	1.980198e+00	0.0	1.029703e+02	1.980198e+00	0.0	1.049505e+02	1.980198e+00	0.0	1.069307e+02	1.980198e+00	0.0	1.089109e+02	1.980198e+00	0.0	1.108911e+02	1.980198e+00	0.0	1.128713e+02	1.980198e+00	0.0	1.148515e+02	1.980198e+00	0.0	1.168317e+02	1.980198e+00	0.0	1.188119e+02	1.980198e+00	0.0	1.207921e+02	1.980198e+00	0.0	1.227723e+02	1.980198e+00	0.0	1.247525e+02	1.980198e+00	0.0	1.267327e+02	1.980198e+00	0.0	1.287129e+02	1.980198e+00	0.0	1.306931e+02	1.980198e+00	0.0	1.326733e+02	1.980198e+00	0.0	1.346535e+02	1.980198e+00	0.0	1.366337e+02	1.980198e+00	0.0	1.386139e+02	1.980198e+00	0.0	1.405941e+02	1.980198e+00	0.0	1.425743e+02	1.980198e+00	0.0	1.445545e+02	1.980198e+00	0.0	1.465347e+02	1.980198e+00	0.0	1.485149e+02	1.980198e+00	0.0	1.504950e+02	1.980198e+00	0.0	1.524752e+02	1.980198e+00	0.0	1.544554e+02	1.980198e+00	0.0	1.564356e+02	1.980198e+00	0.0	1.584158e+02	1.980198e+00	0.0	1.603960e+02	1.980198e+00	0.0	1.623762e+02	1.980198e+00	0.0	1.643564e+02	1.980198e+00	0.0	1.663366e+02	1.980198e+00	0.0	1.683168e+02	1.980198e+00	0.0	1.702970e+02	1.980198e+00	0.0	1.722772e+02	1.980198e+00	0.0	1.742574e+02	1.980198e+00	0.0	1.762376e+02	1.980198e+00	0.0	1.782178e+02	1.980198e+00	0.0	1.801980e+02	1.980198e+00	0.0	1.821782e+02	1.980198e+00	0.0	1.841584e+02	1.980198e+00	0.0	1.861386e+02	1.980198e+00	0.0	1.881188e+02	1.980198e+00	0.0	1.900990e+02	1.980198e+00	0.0	1.920792e+02	1.980198e+00	0.0	1.940594e+02	1.980198e+00	0.0	1.960396e+02	1.980198e+00	0.0	1.980198e+02	1.980198e+00	0.0	2.000000e+02	1.980198e+00	0.0	0.000000e+00	3.960396e+00	0.0	1.980198e+00	3.960396e+00	0.0	3.960396e+00	3.960396e+00	0.0	5.940594e+00	3.960396e+00	0.0	7.920792e+00	3.960396e+00	0.0	9.900990e+00	3.960396e+00	0.0	1.188119e+01	3.960396e+00	0.0	1.386139e+01	3.960396e+00	0.0	1.584158e+01	3.960396e+00	0.0	1.782178e+01	3.960396e+00	0.0	1.980198e+01	3.960396e+00	0.0	2.178218e+01	3.960396e+00	0.0	2.376238e+01	3.960396e+00	0.0	2.574257e+01	3.960396e+00	0.0	2.772277e+01	3.960396e+00	0.0	2.970297e+01	3.960396e+00	0.0	3.168317e+01	3.960396e+00	0.0	3.366337e+01	3.960396e+00	0.0	3.564356e+01	3.960396e+00	0.0	3.762376e+01	3.960396e+00	0.0	3.960396e+01	3.960396e+00	0.0	4.158416e+01	3.960396e+00	0.0	4.356436e+01	3.960396e+00	0.0	4.554455e+01	3.960396e+00	0.0	4.752475e+01	3.960396e+00	0.0	4.950495e+01	3.960396e+00	0.0	5.148515e+01	3.960396e+00	0.0	5.346535e+01	3.960396e+00	0.0	5.544554e+01	3.960396e+00	0.0	5.742574e+01	3.960396e+00	0.0	5.940594e+01	3.960396e+00	0.0	6.138614e+01	3.960396e+00	0.0	6.336634e+01	3.960396e+00	0.0	6.534653e+01	3.960396e+00	0.0	6.732673e+01	3.960396e+00	0.0	6.930693e+01	3.960396e+00	0.0	7.128713e+01	3.960396e+00	0.0	7.326733e+01	3.960396e+00	0.0	7.524752e+01	3.960396e+00	0.0	7.722772e+01	3.960396e+00	0.0	7.920792e+01	3.960396e+00	0.0	8.118812e+01	3.960396e+00	0.0	8.316832e+01	3.960396e+00	0.0	8.514851e+01	3.960396e+00	0.0	8.712871e+01	3.960396e+00	0.0	8.910891e+01	3.960396e+00	0.0	9.108911e+01	3.960396e+00	0.0	9.306931e+01	3.960396e+00	0.0	9.504950e+01	3.960396e+00	0.0	9.702970e+01	3.960396e+00	0.0	9.900990e+01	3.960396e+00	0.0	1.009901e+02	3.960396e+00	0.0	1.029703e+02	3.960396e+00	0.0	1.049505e+02	3.960396e+00	0.0	1.069307e+02	3.960396e+00	0.0	1.089109e+02	3.960396e+00	0.0	1.108911e+02	3.960396e+00	0.0	1.128713e+02	3.960396e+00	0.0	1.148515e+02	3.960396e+00	0.0	1.168317e+02	3.960396e+00	0.0	1.188119e+02	3.960396e+00	0.0	1.207921e+02	3.960396e+00	0.0	1.227723e+02	3.960396e+00	0.0	1.247525e+02	3.960396e+00	0.0	1.267327e+02	3.960396e+00	0.0	1.287129e+02	3.960396e+00	0.0	1.306931e+02	3.960396e+00	0.0	1.326733e+02	3.960396e+00	0.0	1.346535e+02	3.960396e+00	0.0	1.366337e+02	3.960396e+00	0.0	1.386139e+02	3.960396e+00	0.0	1.405941e+02	3.960396e+00	0.0	1.425743e+02	3.960396e+00	0.0	1.445545e+02	3.960396e+00	0.0	1.465347e+02	3.960396e+00	0.0	1.485149e+02	3.960396e+00	0.0	1.504950e+02	3.960396e+00	0.0	1.524752e+02	3.960396e+00	0.0	1.544554e+02	3.960396e+00	0.0	1.564356e+02	3.960396e+00	0.0	1.584158e+02	3.960396e+00	0.0	1.603960e+02	3.960396e+00	0.0	1.623762e+02	3.960396e+00	0.0	1.643564e+02	3.960396e+00	0.0	1.663366e+02	3.960396e+00	0.0	1.683168e+02	3.960396e+00	0.0	1.702970e+02	3.960396e+00	0.0	1.722772e+02	3.960396e+00	0.0	1.742574e+02	3.960396e+00	0.0	1.762376e+02	3.960396e+00	0.0	1.782178e+02	3.960396e+00	0.0	1.801980e+02	3.960396e+00	0.0	1.821782e+02	3.960396e+00	0.0	1.841584e+02	3.960396e+00	0.0	1.861386e+02	3.960396e+00	0.0	1.881188e+02	3.960396e+00	0.0	1.900990e+02	3.960396e+00	0.0	1.920792e+02	3.960396e+00	0.0	1.940594e+02	3.960396e+00	0.0	1.960396e+02	3.960396e+00	0.0	1.980198e+02	3.960396e+00	0.0	2.000000e+02	3.960396e+00	0.0	0.000000e+00	5.940594e+00	0.0	1.980198e+00	5.940594e+00	0.0	3.960396e+00	5.940594e+00	0.0	5.940594e+00	5.940594e+00	0.0	7.920792e+00	5.940594e+00	0.0	9.900990e+00	5.940594e+00	0.0	1.188119e+01	5.940594e+00	0.0	1.386139e+01	5.940594e+00	0.0	1.584158e+01	5.940594e+00	0.0	1.782178e+01	5.940594e+00	0.0	1.980198e+01	5.940594e+00	0.0	2.178218e+01	5.940594e+00	0.0	2.376238e+01	5.940594e+00	0.0	2.574257e+01	5.940594e+00	0.0	2.772277e+01	5.940594e+00	0.0	2.970297e+01	5.940594e+00	0.0	3.168317e+01	5.940594e+00	0.0	3.366337e+01	5.940594e+00	0.0	3.564356e+01	5.940594e+00	0.0	3.762376e+01	5.940594e+00	0.0	3.960396e+01	5.940594e+00	0.0	4.158416e+01	5.940594e+00	0.0	4.356436e+01	5.940594e+00	0.0	4.554455e+01	5.940594
[...]
POINT_DATA 10404

SCALARS Height double 1
LOOKUP_TABLE default
4.000000e+00	4.000000e+00	4.000000e+00	4.000000e+00	4.000000e+00	4.000000e+00	4.000000e+00	4.000000e+00	4.000000e+00	4.000000e+00	4.000000e+00	4.000000e+00	4.000000e+00	3.999999e+00	3.999998e+00	3.999990e+00	3.999957e+00	3.999814e+00	3.999191e+00	3.996475e+00	3.984752e+00	3.938859e+00	3.859127e+00	3.764460e+00	3.663287e+00	3.559264e+00	3.454759e+00	3.351269e+00	3.249710e+00	3.150488e+00	3.053602e+00	2.958987e+00	2.866515e+00	2.776056e+00	2.687519e+00	2.600808e+00	2.515837e+00	2.432548e+00	2.350846e+00	2.270718e+00	2.192068e+00	2.114799e+00	2.038847e+00	1.964055e+00	1.890516e+00	1.819132e+00	1.782122e+00	1.767199e+00	1.760742e+00	1.770959e+00	1.796737e+00	1.817007e+00	1.828067e+00	1.841384e+00	1.854775e+00	1.866593e+00	1.877716e+00	1.887835e+00	1.896994e+00	1.905140e+00	1.913420e+00	1.922251e+00	1.930764e+00	1.939475e+00	1.947511e+00	1.955651e+00	1.965814e+00	1.976553e+00	1.987319e+00	1.995936e+00	2.000239e+00	1.999483e+00	1.992861e+00	1.985553e+00	1.982787e+00	1.979549e+00	1.948872e+00	1.721660e+00	1.211764e+00	1.010220e+00	1.000270e+00	1.000007e+00	1.000000e+00	1.000000e+00	1.000000e+00	1.000000e+00	1.000000e+00	1.000000e+00	1.000000e+00	1.000000e+00	1.000000e+00	1.000000e+00	1.000000e+00	1.000000e+00	1.000000e+00	1.000000e+00	1.000000e+00	1.000000e+00	1.000000e+00	1.000000e+00	1.000000e+00	1.000000e+00	4.000000e+00	4.000000e+00	4.000000e+00	4.000000e+00	4.000000e+00	4.000000e+00	4.000000e+00	4.000000e+00	4.000000e+00	4.000000e+00	4.000000e+00	4.000000e+00	4.000000e+00	4.000000e+00	3.999999e+00	3.999996e+00	3.999983e+00	3.999924e+00	3.999655e+00	3.998305e+00	3.990203e+00	3.939427e+00	3.856365e+00	3.762669e+00	3.663135e+00	3.560211e+00	3.456510e+00	3.353949e+00	3.253200e+00	3.154621e+00	3.058317e+00	2.964191e+00	2.872117e+00	2.781989e+00	2.693724e+00	2.607237e+00	2.522451e+00	2.439321e+00	2.357767e+00	2.277767e+00	2.199225e+00	2.122042e+00	2.046171e+00	1.971427e+00	1.897948e+00	1.826744e+00	1.789843e+00	1.774857e+00	1.768335e+00	1.778038e+00	1.803855e+00	1.824010e+00	1.834302e+00	1.846750e+00	1.859406e+00	1.871077e+00	1.882368e+00	1.892688e+00	1.902089e+00	1.910522e+00	1.919131e+00	1.928065e+00	1.936918e+00	1.945773e+00	1.953982e+00	1.962376e+00	1.971172e+00	1.981977e+00	1.990642e+00	1.998376e+00	2.003963e+00	2.001779e+00	1.995353e+00	1.987882e+00	1.986518e+00	1.984707e+00	1.963415e+00	1.738521e+00	1.151510e+00	1.002490e+00	1.000029e+00	1.000000e+00	1.000000e+00	1.000000e+00	1.000000e+00	1.000000e+00	1.000000e+00	1.000000e+00	1.000000e+00	1.000000e+00	1.000000e+00	1.000000e+00	1.000000e+00	1.000000e+00	1.000000e+00	1.000000e+00	1.000000e+00	1.000000e+00	1.000000e+00	1.000000e+00	1.000000e+00	1.000000e+00	4.000000e+00	4.000000e+00	4.000000e+00	4.000000e+00	4.000000e+00	4.000000e+00	4.000000e+00	4.000000e+00	4.000000e+00	4.000000e+00	4.000000e+00	4.000000e+00	4.000000e+00	4.000000e+00	4.000000e+00	3.999998e+00	3.999993e+00	3.999966e+00	3.999828e+00	3.998928e+00	3.991663e+00	3.936158e+00	3.845798e+00	3.749952e+00	3.649541e+00	3.547326e+00	3.443566e+00	3.340573e+00	3.239754e+00	3.141152e+00	3.044825e+00	2.950680e+00	2.858591e+00	2.768450e+00	2.680158e+00	2.593634e+00	2.508834e+00	2.425719e+00	2.344274e+00	2.264377e+00	2.185946e+00	2.108890e+00	2.033161e+00	1.958576e+00	1.885117e+00	1.814960e+00	1.779679e+00	1.765396e+00	1.759332e+00	1.771266e+00	1.796831e+00	1.816450e+00	1.827094e+00	1.838888e+00	1.850104e+00	1.860551e+00	1.871386e+00	1.881872e+00	1.891617e+00	1.900426e+00	1.909103e+00	1.917698e+00	1.926160e+00	1.934741e+00	1.943156e+00	1.950775e+00	1.957301e+00	1.963410e+00	1.970120e+00	1.977712e+00	1.984478e+00	1.987928e+00	1.990267e+00	1.991674e+00	1.992629e+00	1.991261e+00	1.970592e+00	1.719278e+00	1.128445e+00	1.001700e+00	1.000015e+00	1.000000e+00	1.000000e+00	1.000000e+00	1.000000e+00	1.000000e+00	1.000000e+00	1.000000e+00	1.000000e+00	1.000000e+00	1.000000e+00	1.000000e+00	1.000000e+00	1.000000e+00	1.000000e+00	1.000000e+00	1.000000e+00	1.000000e+00	1.000000e+00	1.000000e+00	1.000000e+00	1.000000e+00	4.000000e+00	4.000000e+00	4.000000e+00	4.000000e+00	4.000000e+00	4.000000e+00	4.000000e+00	4.000000e+00	4.000000e+00	4.000000e+00	4.000000e+00	4.000000e+00	4.000000e+00	4.000000e+00	4.000000e+00	3.999999e+00	3.999997e+00	3.999985e+00	3.999899e+00	3.999167e+00	3.991941e+00	3.931067e+00	3.833129e+00	3.733911e+00	3.634360e+00	3.534216e+00	3.434013e+00	3.332998e+00	3.233326e+00	3.135940e+00	3.040726e+00	2.947549e+00	2.856300e+00	2.766886e+00	2.679214e+00	2.593228e+00	2.508908e+00	2.426226e+00	2.345123e+00	2.265511e+00	2.187340e+00	2.110530e+00	2.035029e+00	1.960692e+00	1.887264e+00	1.818415e+00	1.784599e+00	1.770830e+00	1.765103e+00	1.778498e+00	1.803366e+00	1.821908e+00	1.832667e+00	1.843879e+00	1.853927e+00	1.863064e+00	1.872957e+00	1.883106e+00	1.892876e+00	1.901784e+00	1.910333e+00	1.918651e+00	1.926743e+00	1.934749e+00	1.942371e+00	1.948654e+00	1.952815e+00	1.955271e+00	1.958037e+00	1.961581e+00	1.967638e+00	1.975456e+00	1.984868e+00	1.994590e+00	2.002521e+00	2.007035e+00	1.985000e+00	1.692287e+00	1.106957e+00	1.001219e+00	1.000011e+00	1.000000e+00	1.000000e+00	1.000000e+00	1.000000e+00	1.000000e+00	1.000000e+00	1.000000e+00	1.000000e+00	1.000000e+00	1.000000e+00	1.000000e+00	1.000000e+00	1.000000e+00	1.000000e+00	1.000000e+00	1.000000e+00	1.000000e+00	1.000000e+00	1.000000e+00	1.000000e+00	1.000000e+00	4.000000e+00	4.000000e+00	4.000000e+00	4.000000e+00	4.000000e+00	4.000000e+00	4.000000e+00	4.000000e+00	4.000000e+00	4.000000e+00	4.000000e+00	4.000000e+00	4.000000e+00	4.000000e+00	4.000000e+00	4.000000e+00	3.999999e+00	3.999991e+00	3.999919e+00	3.999141e+00	3.990806e+00	3.921183e+00	3.816913e+00	3.713549e+00	3.614292e+00	3.516024e+00	3.417963e+00	3.319967e+00	3.221717e+00	3.125255e+00	3.030902e+00	2.938508e+00	2.847973e+00	2.759208e+00	2.672118e+00	2.586652e+00	2.502797e+00	2.420536e+00	2.339831e+00	2.260592e+00	2.182769e+00	2.106296e+00	2.031103e+00	1.957101e+00	1.883715e+00	1.816998e+00	1.785355e+00	1.772623e+00	1.767651e+00	1.783180e+00	1.807260e+00	1.823992e+00	1.835078e+00	1.846028e+00	1.855472e+00	1.863759e+00	1.872428e+00	1.881404e+00	1.890487e+00	1.899022e+00	1.907154e+00	1.914787e+00	1.922196e+00	1.929766e+00	1.936553e+00	1.941618e+00	1.944536e+00	1.945304e+00	1.944940e+00	1.946756e+00	1.953752e+00	1.964485e+00	1.980516e+00	1.995032e+00	2.006214e+00	2.015524e+00	1.993047e+00	1.659433e+00	1.081830e+00	1.000764e+00	1.000008e+00	1.000000e+00	1.000000e+00	1.000000e+00	1.000000e+00	1.000000e+00	1.000000e+00	1.000000e+00	1.000000e+00	1.000000e+00	1.000000e+00	1.000000e+00	1.000000e+00	1.000000e+00	1.000000e+00	1.000000e+00	1.000000e+00	1.000000e+00	1.000000e+00	1.000000e+00	1.000000e+00	1.000000e+00	4.000000e+00	4.000000e+00	4.000000e+00	4.000000e+00	4.000000e+00	4.000000e+00	4.000000e+00	4.000000e+00	4.000000e+00	4.000000e+00	4.000000e+00	4.000000e+00	4.000000e+00	4.000000e+00	4.000000e+00	4.000000e+00	3.999999e+00	3.999991e+00	3.999899e+00	3.998858e+00	3.986351e+00	3.904807e+00	3.797337e+00	3.691195e+00	3.589821e+00	3.493015e+00	3.396805e+00	3.301981e+00	3.206766e+00	3.111749e+00	3.018271e+00	2.926681e+00	2.836913e+00	2.748884e+00	2.662493e+00	2.577675e+00	2.494411e+00	2.412686e+00	2.332477e+00	2.253706e+00	2.176326e+00	2.100286e+00	2.025476e+00	1.951861e+00	1.878498e+00	1.814848e+00	1.785921e+00	1.774655e+00	1.771307e+00	1.789589e+00	1.811983e+00	1.826113e+00	1.838018e+00	1.849786e+00	1.859829e+00	1.868510e+00	1.876931e+00	1.885102e+00	1.893123e+00	1.900353e+00	1.907333e+00	1.913913e+00	1.920404e+00	1.926648e+00	1.932526e+00	1.936769e+00	1.938910e+00	1.940438e+00	1.941868e+00	1.949157e+00	1.953885e+00	1.961884e+00	1.981107e+00	1.997119e+00	2.008687e+00	2.018130e+00	1.990842e+00	1.619293e+00	1.060192e+00	1.000539e+00	1.000006e+00	1.000000e+00	1.000000e+00	1.000000e+00	1.000000e+00	1.000000e+00	1.000000e+00	1.000000e+00	1.000000e+00	1.000000e+00	1.000000e+00	1.000000e+00	1.000000e+00	1.000000e+00	1.000000e+00	1.000000e+00	1.000000e+00	1.000000e+00	1.000000e+00	1.000000e+00	1.000000e+00	1.000000e+00	4.000000e+00	4.000000e+00	4.000000e+00	4.000000e+00	4.000000e+00	4.000000e+00	4.000000e+00	4.000000e+00	4.000000e+00	4.000000e+00	4.000000e+00	4.000000e+00	4.000000e+00	4.000000e+00	4.000000e+00	4.000000e+00	3.999999e+00	3.999987e+00	3.999845e+00	3.998171e+00	3.976615e+00	3.881517e+00	3.773148e+00	3.666250e+00	3.562836e+00	3.465164e+00	3.371715e+00	3.278909e+00	3.187664e+00	3.095181e+00	3.003028e+00	2.912274e+00	2.823275e+00	2.736008e+00	2.650379e+00	2.566299e+00	2.483725e+00	2.402634e+00	2.323005e+00	2.244779e+00	2.167919e+00	2.092398e+00	2.018030e+00	1.944904e+00	1.871369e+00	1.811963e+00	1.786095e+00	1.776252e+00	1.775489e+00	1.795907e+00	1.816276e+00	1.827895e+00	1.841410e+00	1.855357e+00	1.867487e+00	1.877836e+00	1.886977e+00	1.894690e+00	1.901672e+00	1.907688e+00	1.913748e+00	1.919668e+00	1.925376e+00	1.929699e+00	1.933244e+00	1.937132e+00	1.942541e+00	1.947488e+00	1.952593e+00	1.958284e+00	1.963518e+00	1.973112e+00	1.988203e+00	1.999461e+00	2.010059e+00	2.016673e+00	1.977791e+00	1.571428e+00	1.043590e+00	1.000419e+00	1.000004e+00	1.000000e+00	1.000000e+00	1.000000e+00	1.000000e+00	1.000000e+00	1.000000e+00	1.000000e+00	1.000000e+00	1.000000e+00	1.000000e+00	1.000000e+00	1.000000e+00	1.000000e+00	1.000000e+00	1.000000e+00	1.000000e+00	1.000000e+00	1.000000e+00	1.000000e+00	1.000000e+00	1.000000e+00	4.000000e+00	4.000000e+00	4.000000e+00	4.000000e+00	4.000000e+00	4.000000e+00	4.000000e+00	4.000000e+00	4.000000e+00	4.000000e+00	4.000000e+00	4.000000e+00	4.000000e+00	4.000000e+00	4.000000e+00	4.000000e+00	3.999998e+00	3.999976e+00	3.999712e+00	3.996425e+00	3.957812e+00	3.853037e+00	3.743867e+00	3.636741e+00	3.533261e+00	3.435151e+00	3.342418e+00	3.252632e+00	3.163196e+00	3.074774e+00	2.984967e+00	2.895498e+00	2.807324e+00	2.720807e+00	2.635928e+00	2.552623e+00	2.470804e+00	2.390423e+00	2.311451e+00	2.233852e+00	2.157593e+00	2.082686e+00	2.008841e+00	1.936303e+00	1.862757e+00	1.808392e+00	1.785945e+00	1.777460e+00	1.780535e+00	1.803126e+00	1.821848e+00	1.832132e+00	1.847183e+00	1.863766e+00	1.878339e+00	1.889945e+00	1.899583e+00	1.907411e+00	1.913860e+00	1.918949e+00	1.923891e+00	1.928024e+00	1.933036e+00	1.937657e+00	1.941787e+00	1.947081e+00	1.952573e+00	1.957306e+00	1.964581e+00	1.970656e+00	1.979369e+00	1.989169e+00	1.996458e+00	2.001926e+00	2.005411e+00	2.003739e+00	1.951596e+00	1.522683e+00	1.029982e+00	1.000330e+00	1.000003e+00	1.000000e+00	1.000000e+00	1.000000e+00	1.000000e+00	1.000000e+00	1.000000e+00	1.000000e+00	1.000000e+00	1.000000e+00	1.000000e+00	1.000000e+00	1.000000e+00	1.000000e+00	1.000000e+00	1.000000e+00	1.000000e+00	1.000000e+00	1.000000e+00	1.000000e+00	1.000000e+00	1.000000e+00	4.000000e+00	4.000000e+00	4.000000e+00	4.000000e+00	4.000000e+00	4.000000e+00	4.000000e+00	4.000000e+00	4.000000e+00	4.000000e+00	4.000000e+00	4.000000e+00	4.000000e+00	4.000000e+00	4.000000e+00	4.000000e+00	3.999996e+00	3.999950e+00	3.999375e+00	3.992503e+00	3.926495e+00	3.818448e+00	3.708769e+00	3.602474e+00	3.500921e+00	3.403799e+00	3.311433e+00	3.222803e+00	3.135525e+00	3.049006e+00	2.963170e+00	2.876013e+00	2.789174e+00	2.703529e+00	2.619434e+00	2.536897e+00	2.455853e+00	2.376234e+00	2.297984e+00	2.221072e+00	2.145472e+00	2.071246e+00	1.998045e+00	1.926105e+00	1.853288e+00	1.804276e+00	1.785530e+00	1.778389e+00	1.786575e+00	1.811780e+00	1.830475e+00	1.840852e+00	1.855112e+00	1.871285e+00	1.886828e+00	1.900186e+00	1.910879e+00	1.919493e+00	1.925857e+00	1.930420e+00	1.934350e+00	1.938329e+00	1.942831e+00	1.946602e+00	1.950248e+00	1.955389e+00	1.960341e+00	1.968171e+00	1.976261e+00	1.985383e+00	1.992423e+00	1.997919e+00	1.996652e+00	1.994173e+00	1.993926e+00	1.988307e+00	1.925599e+00	1.470389e+00	1.018262e+00	1.000247e+00	1.000002e+00	1.000000e+00	1.000000e+00	1.000000e+00	1.000000e+00	1.000000e+00	1.000000e+00	1.000000e+00	1.000000e+00	1.000000e+00	1.000000e+00	1.000000e+00	1.000000e+00	1.000000e+00	1.000000e+00	1.000000e+00	1.000000e+00	1.000000e+00	1.000000e+00	1.000000e+00	1.000000e+00	1.000000e+00	4.000000e+00	4.000000e+00	4.000000e+00	4.000000e+00	4.000000e+00	4.000000e+00	4.000000e+00	4.000000e+00	4.000000e+00	4.000000e+00	4.000000e+00	4.000000e+00	4.000000e+00	4.000000e+00	4.000000e+00	3.999999e+00	3.999990e+00	3.999881e+00	3.998540e+00	3.980304e+00	3.886042e+00	3.775589e+00	3.667540e+00	3.564173e+00	3.465982e+00	3.371182e+00	3.279327e+00	3.190806e+00	3.105029e+00	3.019931e+00	2.936071e+00	2.852784e+00	2.768398e+00	2.684214e+00	2.601098e+00	2.519386e+00	2.439130e+00	2.360293e+00	2.282798e+00	2.206629e+00	2.131759e+00	2.058272e+00	1.985894e+00	1.914522e+00	1.843410e+00	1.800296e+00	1.785045e+00	1.779621e+00	1.794678e+00	1.822616e+00	1.841432e+00	1.850143e+00	1.861761e+00	1.875069e+00	1.889308e+00	1.903458e+00	1.917044e+00	1.928144e+00	1.935943e+00	1.941622e+00	1.945615e+00	1.949486e+00	1.952578e+00	1.955237e+00	1.959202e+00	1.963505e+00	1.971141e+00	1.979062e+00	1.986392e+00	1.991305e+00	1.995156e+00	1.994310e+00	1.990053e+00	1.986778e+00	1.985386e+00	1.977879e+00	1.901471e+00	1.399826e+00	1.013103e+00	1.000158e+00	1.000001e+00	1.000000e+00	1.000000e+00	1.000000e+00	1.000000e+00	1.000000e+00	1.000000e+00	1.000000e+00	1.000000e+00	1.000000e+00	1.000000e+00	1.000000e+00	1.000000e+00	1.000000e+00	1.000000e+00	1.000000e+00	1.000000e+00	1.000000e+00	1.000000e+00	1.000000e+00	1.000000e+00	1.000000e+00	4.000000e+00	4.000000e+00	4.000000e+00	4.000000e+00	4.000000e+00	4.000000e+00	4.000000e+00	4.000000e+00	4.000000e+00	4.000000e+00	4.000000e+00	4.000000e+00	4.000000e+00	4.000000e+00	4.000000e+00	3.999998e+00	3.999975e+00	3.999686e+00	3.995912e+00	3.951036e+00	3.838712e+00	3.725807e+00	3.620995e+00	3.522629e+00	3.428409e+00	3.336581e+00	3.246066e+00	3.157601e+00	3.071779e+00	2.988375e+00	2.905693e+00	2.824290e+00	2.743673e+00	2.662302e+00	2.580751e+00	2.500162e+00	2.420808e+00	2.342816e+00	2.266129e+00	2.190757e+00	2.116689e+00	2.043978e+00	1.972627e+00	1.901816e+00	1.833434e+00	1.796974e+00	1.785481e+00	1.783043e+00	1.804657e+00	1.833082e+00	1.850426e+00	1.857315e+00	1.866194e+00	1.876057e+00	1.886913e+00	1.899434e+00	1.913517e+00	1.927140e+00	1.940067e+00	1.949823e+00	1.955795e+00	1.960106e+00	1.963493e+00	1.967691e+00	1.973118e+00	1.977429e+00	1.981288e+00	1.982889e+00	1.985446e+00	1.989404e+00	1.990626e+00	1.987429e+00	1.981409e+00	1.980443e+00	1.980764e+00	1.973241e+00	1.873862e+00	1.317062e+00	1.008344e+00	1.000088e+00	1.000001e+00	1.000000e+00	1.000000e+00	1.000000e+00	1.000000e+00	1.000000e+00	1.000000e+00	1.000000e+00	1.000000e+00	1.000000e+00	1.000000e+00	1.000000e+00	1.000000e+00	1.000000e+00	1.000000e+00	1.000000e+00	1.000000e+00	1.000000e+00	1.000000e+00	1.000000e+00	1.000000e+00	1.000000e+00	4.000000e+00	4.000000e+00	4.000000e+00	4.000000e+00	4.000000e+00	4.000000e+00	4.000000e+00	4.000000e+00	4.000000e+00	4.000000e+00	4.000000e+00	4.000000e+00	4.000000e+00	4.000000e+00	4.000000e+00	3.999994e+00	3.999927e+00	3.999054e+00	3.987523e+00	3.897270e+00	3.780964e+00	3.671091e+00	3.571569e+00	3.478345e+00	3.388003e+00	3.299111e+00	3.210898e+00	3.123517e+00	3.037957e+00	2.954611e+00	2.873125e+00	2.792803e+00	2.713745e+00	2.635632e+00	2.557417e+00	2.478758e+00	2.400775e+00	2.323839e+00	2.248093e+00	2.173609e+00	2.100447e+00	2.028576e+00	1.958396e+00	1.887857e+00	1.824616e+00	1.795540e+00	1.787237e+00	1.789999e+00	1.814418e+00	1.841193e+00	1.856766e+00	1.862100e+00	1.868662e+00	1.875748e+00	1.883444e+00	1.892667e+00	1.903461e+00	1.916493e+00	1.930982e+00	1.947207e+00	1.960409e+00	1.969073e+00	1.973983e+00	1.978796e+00	1.981295e+00	1.981800e+00	1.981641e+00	1.982075e+00	1.981908e+00	1.983385e+00	1.982701e+00	1.977965e+00	1.974113e+00	1.977127e+00	1.980096e+00	1.976503e+00	1.835017e+00	1.223564e+00	1.004463e+00	1.000039e+00	1.000000e+00	1.000000e+00	1.000000e+00	1.000000e+00	1.000000e+00	1.000000e+00	1.000000e+00	1.000000e+00	1.000000e+00	1.000000e+00	1.000000e+00	1.000000e+00	1.000000e+00	1.000000e+00	1.000000e+00	1.000000e+00	1.000000e+00	1.000000e+00	1.000000e+00	1.000000e+00	1.000000e+00	1.000000e+00	4.000000e+00	4.000000e+00	4.000000e+00	4.000000e+00	4.000000e+00	4.000000e+00	4.000000e+00	4.000000e+00	4.000000e+00	4.000000e+00	4.000000e+00	4.000000e+00	4.000000e+00	4.000000e+00	3.999998e+00	3.999981e+00	3.999744e+00	3.996497e+00	3.952685e+00	3.832951e+00	3.716828e+00	3.613689e+00	3.520157e+00	3.431421e+00	3.344539e+00	3.258489e+00	3.172912e+00	3.087560e+00	3.003057e+00	2.919942e+00	2.838943e+00	2.759536e+00	2.681597e+00	2.604864e+00	2.529157e+00	2.453824e+00	2.378145e+00	2.302904e+00	2.228467e+00	2.155112e+00	2.083037e+00	2.012199e+00	1.943225e+00	1.873645e+00	1.818483e+00	1.796970e+00	1.791135e+00	1.798792e+00	1.822128e+00	1.846184e+00	1.860559e+00	1.865003e+00	1.869931e+00	1.875146e+00	1.880605e+00	1.887143e+00	1.894338e+00	1.902419e+00	1.913866e+00	1.927478e+00	1.945846e+00	1.964805e+00	1.977764e+00	1.983180e+00	1.984928e+00	1.984983e+00	1.982949e+00	1.980426e+00	1.977593e+00	1.975838e+00	1.972869e+00	1.968506e+00	1.971341e+00	1.979901e+00	1.991221e+00	1.983721e+00	1.757636e+00	1.141492e+00	1.001859e+00	1.000014e+00	1.000000e+00	1.000000e+00	1.000000e+00	1.000000e+00	1.000000e+00	1.000000e+00	1.000000e+00	1.000000e+00	1.000000e+00	1.000000e+00	1.000000e+00	1.000000e+00	1.000000e+00	1.000000e+00	1.000000e+00	1.000000e+00	1.000000e+00	1.000000e+00	1.000000e+00	1.000000e+00	1.000000e+00	1.000000e+00	3.999999e+00	4.000000e+00	4.000000e+00	4.000000e+00	4.000000e+00	4.000000e+00	4.000000e+00	4.000000e+00	4.000000e+00	4.000000e+00	4.000000e+00	4.000000e+00	4.000000e+00	3.999999e+00	3.999993e+00	3.999912e+00	3.998830e+00	3.982820e+00	3.878661e+00	3.758535e+00	3.650716e+00	3.554940e+00	3.466742e+00	3.381813e+00	3.298023e+00	3.214693e+00	3.131677e+00	3.049043e+00	2.966616e+00	2.884704e+00	2.804019e+00	2.725020e+00	2.647762e+00	2.572086e+00	2.497734e+00	2.424389e+00	2.351695e+00	2.278947e+00	2.206503e+00	2.134782e+00	2.064130e+00	1.994737e+00	1.927068e+00	1.860690e+00	1.815687e+00	1.800815e+00	1.796675e+00	1.806987e+00	1.827482e+00	1.848421e+00	1.862390e+00	1.866873e+00	1.870741e+00	1.874818e+00	1.878724e+00	1.883244e+00	1.888144e+00	1.892508e+00	1.897940e+00	1.907155e+00	1.919684e+00	1.936659e+00	1.957417e+00	1.976802e+00	1.986025e+00	1.988485e+00	1.986110e+00	1.982197e+00	1.977679e+00	1.972914e+00	1.967622e+00	1.969750e+00	1.978465e+00	1.995598e+00	2.004540e+00	1.984386e+00	1.647614e+00	1.071140e+00	1.000571e+00	1.000006e+00	1.000000e+00	1.000000e+00	1.000000e+00	1.000000e+00	1.000000e+00	1.000000e+00	1.000000e+00	1.000000e+00	1.000000e+00	1.000000e+00	1.000000e+00	1.000000e+00	1.000000e+00	1.000000e+00	1.000000e+00	1.000000e+00	1.000000e+00	1.000000e+00	1.000000e+00	1.000000e+00	1.000000e+00	1.000000e+00	3.999998e+00	3.999999e+00	4.000000e+00	4.000000e+00	4.000000e+00	4.000000e+00	4.000000e+00	4.000000e+00	4.000000e+00	4.000000e+00	4.000000e+00	4.000000e+00	3.999998e+00	3.999993e+00	3.999945e+00	3.999412e+00	3.992304e+00	3.916541e+00	3.794351e+00	3.682415e+00	3.583861e+00	3.494853e+00	3.411170e+00	3.329600e+00	3.248691e+00	3.167994e+00	3.087515e+00	3.007708e+00	2.927541e+00	2.848058e+00	2.768657e+00	2.690402e+00	2.613450e+00	2.538082e+00	2.464473e+00	2.392367e+00	2.321373e+00	2.251170e+00	2.181244e+00	2.111752e+00	2.043023e+00	1.975699e+00	1.909613e+00	1.849577e+00	1.816007e+00	1.805250e+00	1.802278e+00	1.813646e+00	1.831093e+00	1.849122e+00	1.863000e+00	1.868406e+00	1.871877e+00	1.876336e+00	1.881387e+00	1.886482e+00	1.891251e+00	1.895465e+00	1.898423e+00	1.901044e+00	1.904242e+00	1.914092e+00	1.928016e+00	1.946947e+00	1.969519e+00	1.986657e+00	1.990630e+00	1.987990e+00	1.983740e+00	1.979300e+00	1.978688e+00	1.985868e+00	1.996517e+00	2.009548e+00	2.015795e+00	1.971191e+00	1.511189e+00	1.018999e+00	1.000240e+00	1.000002e+00	1.000000e+00	1.000000e+00	1.000000e+00	1.000000e+00	1.000000e+00	1.000000e+00	1.000000e+00	1.000000e+00	1.000000e+00	1.000000e+00	1.000000e+00	1.000000e+00	1.000000e+00	1.000000e+00	1.000000e+00	1.000000e+00	1.000000e+00	1.000000e+00	1.000000e+00	1.000000e+00	1.000000e+00	1.000000e+00	3.999990e+00	3.999996e+00	3.999998e+00	3.999999