# vtk DataFile Version 3.0
vtk output
ASCII
DATASET STRUCTURED_GRID
DIMENSIONS 102 102 1
POINTS 10404 double
0.000000e+00	0.000000e+00	0.0	1.980198e+00	0.000000e+00	0.0	3.960396e+00	0.000000e+00	0.0	5.940594e+00	0.000000e+00	0.0	7.920792e+00	0.000000e+00	0.0	9.900990e+00	0.000000e+00	0.0	1.188119e+01	0.000000e+00	0.0	1.386139e+01	0.000000e+00	0.0	1.584158e+01	0.000000e+00	0.0	1.782178e+01	0.000000e+00	0.0	1.980198e+01	0.000000e+00	0.0	2.178218e+01	0.000000e+00	0.0	2.376238e+01	0.000000e+00	0.0	2.574257e+01	0.000000e+00	0.0	2.772277e+01	0.000000e+00	0.0	2.970297e+01	0.000000e+00	0.0	3.168317e+01	0.000000e+00	0.0	3.366337e+01	0.000000e+00	0.0	3.564356e+01	0.000000e+00	0.0	3.762376e+01	0.000000e+00	0.0	3.960396e+01	0.000000e+00	0.0	4.158416e+01	0.000000e+00	0.0	4.356436e+01	0.000000e+00	0.0	4.554455e+01	0.000000e+00	0.0	4.752475e+01	0.000000e+00	0.0	4.950495e+01	0.000000e+00	0.0	5.148515e+01	0.000000e+00	0.0	5.346535e+01	0.000000e+00	0.0	5.544554e+01	0.000000e+00	0.0	5.742574e+01	0.000000e+00	0.0	5.940594e+01	0.000000e+00	0.0	6.138614e+01	0.000000e+00	0.0	6.336634e+01	0.000000e+00	0.0	6.534653e+01	0.000000e+00	0.0	6.732673e+01	0.000000e+00	0.0	6.930693e+01	0.000000e+00	0.0	7.128713e+01	0.000000e+00	0.0	7.326733e+01	0.000000e+00	0.0	7.524752e+01	0.000000e+00	0.0	7.722772e+01	0.000000e+00	0.0	7.920792e+01	0.000000e+00	0.0	8.118812e+01	0.000000e+00	0.0	8.316832e+01	0.000000e+00	0.0	8.514851e+01	0.000000e+00	0.0	8.712871e+01	0.000000e+00	0.0	8.910891e+01	0.000000e+00	0.0	9.108911e+01	0.000000e+00	0.0	9.306931e+01	0.000000e+00	0.0	9.504950e+01	0.000000e+00	0.0	9.702970e+01	0.000000e+00	0.0	9.900990e+01	0.000000e+00	0.0	1.009901e+02	0.000000e+00	0.0	1.029703e+02	0.000000e+00	0.0	1.049505e+02	0.000000e+00	0.0	1.069307e+02	0.000000e+00	0.0	1.089109e+02	0.000000e+00	0.0	1.108911e+02	0.000000e+00	0.0	1.128713e+02	0.000000e+00	0.0	1.148515e+02	0.000000e+00	0.0	1.168317e+02	0.000000e+00	0.0	1.188119e+02	0.000000e+00	0.0	1.207921e+02	0.000000e+00	0.0	1.227723e+02	0.000000e+00	0.0	1.247525e+02	0.000000e+00	0.0	1.267327e+02	0.000000e+00	0.0	1.287129e+02	0.000000e+00	0.0	1.306931e+02	0.000000e+00	0.0	1.326733e+02	0.000000e+00	0.0	1.346535e+02	0.000000e+00	0.0	1.366337e+02	0.000000e+00	0.0	1.386139e+02	0.000000e+00	0.0	1.405941e+02	0.000000e+00	0.0	1.425743e+02	0.000000e+00	0.0	1.445545e+02	0.000000e+00	0.0	1.465347e+02	0.000000e+00	0.0	1.485149e+02	0.000000e+00	0.0	1.504950e+02	0.000000e+00	0.0	1.524752e+02	0.000000e+00	0.0	1.544554e+02	0.000000e+00	0.0	1.564356e+02	0.000000e+00	0.0	1.584158e+02	0.000000e+00	0.0	1.603960e+02	0.000000e+00	0.0	1.623762e+02	0.000000e+00	0.0	1.643564e+02	0.000000e+00	0.0	1.663366e+02	0.000000e+00	0.0	1.683168e+02	0.000000e+00	0.0	1.702970e+02	0.000000e+00	0.0	1.722772e+02	0.000000e+00	0.0	1.742574e+02	0.000000e+00	0.0	1.762376e+02	0.000000e+00	0.0	1.782178e+02	0.000000e+00	0.0	1.801980e+02	0.000000e+00	0.0	1.821782e+02	0.000000e+00	0.0	1.841584e+02	0.000000e+00	0.0	1.861386e+02	0.000000e+00	0.0	1.881188e+02	0.000000e+00	0.0	1.900990e+02	0.000000e+00	0.0	1.920792e+02	0.000000e+00	0.0	1.940594e+02	0.000000e+00	0.0	1.960396e+02	0.000000e+00	0.0	1.980198e+02	0.000000e+00	0.0	2.000000e+02	0.000000e+00	0.0	0.000000e+00	1.980198e+00	0.0	1.980198e+00	1.980198e+00	0.0	3.960396e+00	1.980198e+00	0.0	5.940594e+00	1.980198e+00	0.0	7.920792e+00	1.980198e+00	0.0	9.900990e+00	1.980198e+00	0.0	1.188119e+01	1.980198e+00	0.0	1.386139e+01	1.980198e+00	0.0	1.584158e+01	1.980198e+00	0.0	1.782178e+01	1.980198e+00	0.0	1.980198e+01	1.980198e+00	0.0	2.178218e+01	1.980198e+00	0.0	2.376238e+01	1.980198e+00	0.0	2.574257e+01	1.980198e+00	0.0	2.772277e+01	1.980198e+00	0.0	2.970297e+01	1.980198e+00	0.0	3.168317e+01	1.980198e+00	0.0	3.366337e+01	1.980198e+00	0.0	3.564356e+01	1.980198e+00	0.0	3.762376e+01	1.980198e+00	0.0	3.960396e+01	1.980198e+00	0.0	4.158416e+01	1.980198e+00	0.0	4.356436e+01	1.980198e+00	0.0	4.554455e+01	1.980198e+00	0.0	4.752475e+01	1.980198e+00	0.0	4.950495e+01	1.980198e+00	0.0	5.148515e+01	1.980198e+00	0.0	5.346535e+01	1.980198e+00	0.0	5.544554e+01	1.980198e+00	0.0	5.742574e+01	1.980198e+00	0.0	5.940594e+01	1.980198e+00	0.0	6.138614e+01	1.980198e+00	0.0	6.336634e+01	1.980198e+00	0.0	6.534653e+01	1.980198e+00	0.0	6.732673e+01	1.980198e+00	0.0	6.930693e+01	1.980198e+00	0.0	7.128713e+01	1.980198e+00	0.0	7.326733e+01	1.980198e+00	0.0	7.524752e+01	1.980198e+00	0.0	7.722772e+01	1.980198e+00	0.0	7.920792e+01	1.980198e+00	0.0	8.118812e+01	1.980198e+00	0.0	8.316832e+01	1.980198e+00	0.0	8.514851e+01	1.980198e+00	0.0	8.712871e+01	1.980198e+00	0.0	8.910891e+01	1.980198e+00	0.0	9.108911e+01	1.980198e+00	0.0	9.306931e+01	1.980198e+00	0.0	9.504950e+01	1.980198e+00	0.0	9.702970e+01	1.980198e+00	0.0	9.900990e+01	1.980198e+00	0.0	1.009901e+02	1.980198e+00	0.0	1.029703e+02	1.980198e+00	0.0	1.049505e+02	1.980198e+00	0.0	1.069307e+02	1.980198e+00	0.0	1.089109e+02	1.980198e+00	0.0	1.108911e+02	1.980198e+00	0.0	1.128713e+02	1.980198e+00	0.0	1.148515e+02	1.980198e+00	0.0	1.168317e+02	1.980198e+00	0.0	1.188119e+02	1.980198e+00	0.0	1.207921e+02	1.980198e+00	0.0	1.227723e+02	1.980198e+00	0.0	1.247525e+02	1.980198e+00	0.0	1.267327e+02	1.980198e+00	0.0	1.287129e+02	1.980198e+00	0.0	1.306931e+02	1.980198e+00	0.0	1.326733e+02	1.980198e+00	0.0	1.346535e+02	1.980198e+00	0.0	1.366337e+02	1.980198e+00	0.0	1.386139e+02	1.980198e+00	0.0	1.405941e+02	1.980198e+00	0.0	1.425743e+02	1.980198e+00	0.0	1.445545e+02	1.980198e+00	0.0	1.465347e+02	1.980198e+00	0.0	1.485149e+02	1.980198e+00	0.0	1.504950e+02	1.980198e+00	0.0	1.524752e+02	1.980198e+00	0.0	1.544554e+02	1.980198e+00	0.0	1.564356e+02	1.980198e+00	0.0	1.584158e+02	1.980198e+00	0.0	1.603960e+02	1.980198e+00	0.0	1.623762e+02	1.980198e+00	0.0	1.643564e+02	1.980198e+00	0.0	1.663366e+02	1.980198e+00	0.0	1.683168e+02	1.980198e+00	0.0	1.702970e+02	1.980198e+00	0.0	1.722772e+02	1.980198e+00	0.0	1.742574e+02	1.980198e+00	0.0	1.762376e+02	1.980198e+00	0.0	1.782178e+02	1.980198e+00	0.0	1.801980e+02	1.980198e+00	0.0	1.821782e+02	1.980198e+00	0.0	1.841584e+02	1.980198e+00	0.0	1.861386e+02	1.980198e+00	0.0	1.881188e+02	1.980198e+00	0.0	1.900990e+02	1.980198e+00	0.0	1.920792e+02	1.980198e+00	0.0	1.940594e+02	1.980198e+00	0.0	1.960396e+02	1.980198e+00	0.0	1.980198e+02	1.980198e+00	0.0	2.000000e+02	1.980198e+00	0.0	0.000000e+00	3.960396e+00	0.0	1.980198e+00	3.960396e+00	0.0	3.960396e+00	3.960396e+00	0.0	5.940594e+00	3.960396e+00	0.0	7.920792e+00	3.960396e+00	0.0	9.900990e+00	3.960396e+00	0.0	1.188119e+01	3.960396e+00	0.0	1.386139e+01	3.960396e+00	0.0	1.584158e+01	3.960396e+00	0.0	1.782178e+01	3.960396e+00	0.0	1.980198e+01	3.960396e+00	0.0	2.178218e+01	3.960396e+00	0.0	2.376238e+01	3.960396e+00	0.0	2.574257e+01	3.960396e+00	0.0	2.772277e+01	3.960396e+00	0.0	2.970297e+01	3.960396e+00	0.0	3.168317e+01	3.960396e+00	0.0	3.366337e+01	3.960396e+00	0.0	3.564356e+01	3.960396e+00	0.0	3.762376e+01	3.960396e+00	0.0	3.960396e+01	3.960396e+00	0.0	4.158416e+01	3.960396e+00	0.0	4.356436e+01	3.960396e+00	0.0	4.554455e+01	3.960396e+00	0.0	4.752475e+01	3.960396e+00	0.0	4.950495e+01	3.960396e+00	0.0	5.148515e+01	3.960396e+00	0.0	5.346535e+01	3.960396e+00	0.0	5.544554e+01	3.960396e+00	0.0	5.742574e+01	3.960396e+00	0.0	5.940594e+01	3.960396e+00	0.0	6.138614e+01	3.960396e+00	0.0	6.336634e+01	3.960396e+00	0.0	6.534653e+01	3.960396e+00	0.0	6.732673e+01	3.960396e+00	0.0	6.930693e+01	3.960396e+00	0.0	7.128713e+01	3.960396e+00	0.0	7.326733e+01	3.960396e+00	0.0	7.524752e+01	3.960396e+00	0.0	7.722772e+01	3.960396e+00	0.0	7.920792e+01	3.960396e+00	0.0	8.118812e+01	3.960396e+00	0.0	8.316832e+01	3.960396e+00	0.0	8.514851e+01	3.960396e+00	0.0	8.712871e+01	3.960396e+00	0.0	8.910891e+01	3.960396e+00	0.0	9.108911e+01	3.960396e+00	0.0	9.306931e+01	3.960396e+00	0.0	9.504950e+01	3.960396e+00	0.0	9.702970e+01	3.960396e+00	0.0	9.900990e+01	3.960396e+00	0.0	1.009901e+02	3.960396e+00	0.0	1.029703e+02	3.960396e+00	0.0	1.049505e+02	3.960396e+00	0.0	1.069307e+02	3.960396e+00	0.0	1.089109e+02	3.960396e+00	0.0	1.108911e+02	3.960396e+00	0.0	1.128713e+02	3.960396e+00	0.0	1.148515e+02	3.960396e+00	0.0	1.168317e+02	3.960396e+00	0.0	1.188119e+02	3.960396e+00	0.0	1.207921e+02	3.960396e+00	0.0	1.227723e+02	3.960396e+00	0.0	1.247525e+02	3.960396e+00	0.0	1.267327e+02	3.960396e+00	0.0	1.287129e+02	3.960396e+00	0.0	1.306931e+02	3.960396e+00	0.0	1.326733e+02	3.960396e+00	0.0	1.346535e+02	3.960396e+00	0.0	1.366337e+02	3.960396e+00	0.0	1.386139e+02	3.960396e+00	0.0	1.405941e+02	3.960396e+00	0.0	1.425743e+02	3.960396e+00	0.0	1.445545e+02	3.960396e+00	0.0	1.465347e+02	3.960396e+00	0.0	1.485149e+02	3.960396e+00	0.0	1.504950e+02	3.960396e+00	0.0	1.524752e+02	3.960396e+00	0.0	1.544554e+02	3.960396e+00	0.0	1.564356e+02	3.960396e+00	0.0	1.584158e+02	3.960396e+00	0.0	1.603960e+02	3.960396e+00	0.0	1.623762e+02	3.960396e+00	0.0	1.643564e+02	3.960396e+00	0.0	1.663366e+02	3.960396e+00	0.0	1.683168e+02	3.960396e+00	0.0	1.702970e+02	3.960396e+00	0.0	1.722772e+02	3.960396e+00	0.0	1.742574e+02	3.960396e+00	0.0	1.762376e+02	3.960396e+00	0.0	1.782178e+02	3.960396e+00	0.0	1.801980e+02	3.960396e+00	0.0	1.821782e+02	3.960396e+00	0.0	1.841584e+02	3.960396e+00	0.0	1.861386e+02	3.960396e+00	0.0	1.881188e+02	3.960396e+00	0.0	1.900990e+02	3.960396e+00	0.0	1.920792e+02	3.960396e+00	0.0	1.940594e+02	3.960396e+00	0.0	1.960396e+02	3.960396e+00	0.0	1.980198e+02	3.960396e+00	0.0	2.000000e+02	3.960396e+00	0.0	0.000000e+00	5.940594e+00	0.0	1.980198e+00	5.940594e+00	0.0	3.960396e+00	5.940594e+00	0.0	5.940594e+00	5.940594e+00	0.0	7.920792e+00	5.940594e+00	0.0	9.900990e+00	5.940594e+00	0.0	1.188119e+01	5.940594e+00	0.0	1.386139e+01	5.940594e+00	0.0	1.584158e+01	5.940594e+00	0.0	1.782178e+01	5.940594e+00	0.0	1.980198e+01	5.940594e+00	0.0	2.178218e+01	5.940594e+00	0.0	2.376238e+01	5.940594e+00	0.0	2.574257e+01	5.940594e+00	0.0	2.772277e+01	5.940594e+00	0.0	2.970297e+01	5.940594e+00	0.0	3.168317e+01	5.940594e+00	0.0	3.366337e+01	5.940594e+00	0.0	3.564356e+01	5.940594e+00	0.0	3.762376e+01	5.940594e+00	0.0	3.960396e+01	5.940594e+00	0.0	4.158416e+01	5.940594e+00	0.0	4.356436e+01	5.940594e+00	0.0	4.554455e+01	5.940594
[...]
POINT_DATA 10404

SCALARS Height double 1
LOOKUP_TABLE default
4.000000e+00	4.000000e+00	4.000000e+00	4.000000e+00	4.000000e+00	4.000000e+00	4.000000e+00	4.000000e+00	4.000000e+00	4.000000e+00	3.999998e+00	3.999991e+00	3.999962e+00	3.999833e+00	3.999270e+00	3.996804e+00	3.986112e+00	3.943995e+00	3.869327e+00	3.780240e+00	3.685095e+00	3.587501e+00	3.489652e+00	3.393056e+00	3.298541e+00	3.206467e+00	3.116856e+00	3.029628e+00	2.944619e+00	2.861646e+00	2.780536e+00	2.701154e+00	2.623405e+00	2.547214e+00	2.472510e+00	2.399231e+00	2.327333e+00	2.256768e+00	2.187462e+00	2.119381e+00	2.052471e+00	1.986657e+00	1.921870e+00	1.857951e+00	1.794013e+00	1.739895e+00	1.716223e+00	1.706789e+00	1.703465e+00	1.724431e+00	1.751699e+00	1.770222e+00	1.781922e+00	1.794947e+00	1.806520e+00	1.816137e+00	1.825264e+00	1.833631e+00	1.841438e+00	1.849195e+00	1.857386e+00	1.865484e+00	1.873060e+00	1.880386e+00	1.887130e+00	1.893633e+00	1.900060e+00	1.906613e+00	1.912670e+00	1.918854e+00	1.925473e+00	1.934346e+00	1.946696e+00	1.961516e+00	1.977195e+00	1.988800e+00	1.993701e+00	1.994091e+00	1.989620e+00	1.970127e+00	1.856857e+00	1.425048e+00	1.039853e+00	1.001395e+00	1.000039e+00	1.000001e+00	1.000000e+00	1.000000e+00	1.000000e+00	1.000000e+00	1.000000e+00	1.000000e+00	1.000000e+00	1.000000e+00	1.000000e+00	1.000000e+00	1.000000e+00	1.000000e+00	1.000000e+00	1.000000e+00	1.000000e+00	1.000000e+00	4.000000e+00	4.000000e+00	4.000000e+00	4.000000e+00	4.000000e+00	4.000000e+00	4.000000e+00	4.000000e+00	4.000000e+00	4.000000e+00	3.999999e+00	3.999996e+00	3.999985e+00	3.999932e+00	3.999691e+00	3.998472e+00	3.991124e+00	3.944684e+00	3.866705e+00	3.778673e+00	3.685300e+00	3.588754e+00	3.491729e+00	3.395975e+00	3.302199e+00	3.210761e+00	3.121683e+00	3.034886e+00	2.950219e+00	2.867517e+00	2.786624e+00	2.707420e+00	2.629815e+00	2.553738e+00	2.479126e+00	2.405925e+00	2.334092e+00	2.263569e+00	2.194287e+00	2.126231e+00	2.059341e+00	1.993538e+00	1.928751e+00	1.864841e+00	1.800806e+00	1.746766e+00	1.723124e+00	1.713608e+00	1.710033e+00	1.730765e+00	1.757933e+00	1.776104e+00	1.787194e+00	1.800141e+00	1.811775e+00	1.821651e+00	1.830982e+00	1.839468e+00	1.847371e+00	1.855220e+00	1.863508e+00	1.871877e+00	1.879917e+00	1.887712e+00	1.895038e+00	1.901929e+00	1.908814e+00	1.915679e+00	1.922245e+00	1.929059e+00	1.936243e+00	1.944738e+00	1.955354e+00	1.967963e+00	1.980845e+00	1.991511e+00	1.995064e+00	1.993382e+00	1.990145e+00	1.975855e+00	1.883920e+00	1.384611e+00	1.013975e+00	1.000220e+00	1.000003e+00	1.000000e+00	1.000000e+00	1.000000e+00	1.000000e+00	1.000000e+00	1.000000e+00	1.000000e+00	1.000000e+00	1.000000e+00	1.000000e+00	1.000000e+00	1.000000e+00	1.000000e+00	1.000000e+00	1.000000e+00	1.000000e+00	1.000000e+00	4.000000e+00	4.000000e+00	4.000000e+00	4.000000e+00	4.000000e+00	4.000000e+00	4.000000e+00	4.000000e+00	4.000000e+00	4.000000e+00	4.000000e+00	3.999999e+00	3.999994e+00	3.999970e+00	3.999846e+00	3.999030e+00	3.992399e+00	3.940845e+00	3.855604e+00	3.765638e+00	3.671766e+00	3.575885e+00	3.478578e+00	3.382234e+00	3.288249e+00	3.196709e+00	3.107617e+00	3.020820e+00	2.936123e+00	2.853360e+00	2.772396e+00	2.693126e+00	2.615459e+00	2.539315e+00	2.464645e+00	2.391423e+00	2.319607e+00	2.249146e+00	2.180004e+00	2.112070e+00	2.045291e+00	1.979639e+00	1.914977e+00	1.851354e+00	1.787174e+00	1.734765e+00	1.712351e+00	1.703568e+00	1.701370e+00	1.723468e+00	1.750406e+00	1.768329e+00	1.779931e+00	1.793084e+00	1.805355e+00	1.816546e+00	1.827232e+00	1.836941e+00	1.845706e+00	1.853731e+00	1.861854e+00	1.870025e+00	1.878152e+00	1.886208e+00	1.893770e+00	1.900862e+00	1.907421e+00	1.914549e+00	1.921557e+00	1.928619e+00	1.935478e+00	1.942391e+00	1.948759e+00	1.955233e+00	1.963561e+00	1.970149e+00	1.975115e+00	1.977988e+00	1.978602e+00	1.971933e+00	1.888398e+00	1.370155e+00	1.011536e+00	1.000139e+00	1.000001e+00	1.000000e+00	1.000000e+00	1.000000e+00	1.000000e+00	1.000000e+00	1.000000e+00	1.000000e+00	1.000000e+00	1.000000e+00	1.000000e+00	1.000000e+00	1.000000e+00	1.000000e+00	1.000000e+00	1.000000e+00	1.000000e+00	1.000000e+00	4.000000e+00	4.000000e+00	4.000000e+00	4.000000e+00	4.000000e+00	4.000000e+00	4.000000e+00	4.000000e+00	4.000000e+00	4.000000e+00	4.000000e+00	3.999999e+00	3.999998e+00	3.999986e+00	3.999909e+00	3.999233e+00	3.992405e+00	3.934830e+00	3.842516e+00	3.749506e+00	3.656082e+00	3.562158e+00	3.468060e+00	3.373442e+00	3.280808e+00	3.190650e+00	3.102806e+00	3.017009e+00	2.933089e+00	2.850943e+00	2.770501e+00	2.691697e+00	2.614450e+00	2.538681e+00	2.464341e+00	2.391413e+00	2.319873e+00	2.249662e+00	2.180702e+00	2.112926e+00	2.046289e+00	1.980790e+00	1.916233e+00	1.852780e+00	1.788634e+00	1.737740e+00	1.716246e+00	1.707817e+00	1.706818e+00	1.729673e+00	1.755892e+00	1.773206e+00	1.785185e+00	1.798487e+00	1.810932e+00	1.823091e+00	1.834979e+00	1.845594e+00	1.854881e+00	1.862911e+00	1.870771e+00	1.878669e+00	1.886689e+00	1.894684e+00	1.902093e+00	1.908920e+00	1.915258e+00	1.922211e+00	1.929526e+00	1.937013e+00	1.944146e+00	1.950129e+00	1.954695e+00	1.956833e+00	1.957694e+00	1.959186e+00	1.962397e+00	1.968205e+00	1.973445e+00	1.973483e+00	1.888752e+00	1.355278e+00	1.010463e+00	1.000121e+00	1.000001e+00	1.000000e+00	1.000000e+00	1.000000e+00	1.000000e+00	1.000000e+00	1.000000e+00	1.000000e+00	1.000000e+00	1.000000e+00	1.000000e+00	1.000000e+00	1.000000e+00	1.000000e+00	1.000000e+00	1.000000e+00	1.000000e+00	1.000000e+00	4.000000e+00	4.000000e+00	4.000000e+00	4.000000e+00	4.000000e+00	4.000000e+00	4.000000e+00	4.000000e+00	4.000000e+00	4.000000e+00	4.000000e+00	4.000000e+00	3.999999e+00	3.999991e+00	3.999922e+00	3.999160e+00	3.991000e+00	3.923359e+00	3.825561e+00	3.728266e+00	3.634542e+00	3.541916e+00	3.450407e+00	3.359129e+00	3.268197e+00	3.179226e+00	3.092402e+00	3.007468e+00	2.924272e+00	2.842729e+00	2.762798e+00	2.684437e+00	2.607592e+00	2.532195e+00	2.458193e+00	2.385568e+00	2.314298e+00	2.244345e+00	2.175634e+00	2.108109e+00	2.041703e+00	1.976448e+00	1.912086e+00	1.848845e+00	1.784898e+00	1.736492e+00	1.716525e+00	1.708686e+00	1.709677e+00	1.733695e+00	1.759100e+00	1.775578e+00	1.788488e+00	1.802466e+00	1.815610e+00	1.828978e+00	1.842508e+00	1.854555e+00	1.864784e+00	1.873079e+00	1.880537e+00	1.887546e+00	1.894746e+00	1.902048e+00	1.908844e+00	1.915148e+00	1.921340e+00	1.927769e+00	1.935152e+00	1.942694e+00	1.949683e+00	1.954294e+00	1.953804e+00	1.951861e+00	1.949112e+00	1.948276e+00	1.951772e+00	1.961527e+00	1.973779e+00	1.974315e+00	1.880515e+00	1.329669e+00	1.009011e+00	1.000099e+00	1.000001e+00	1.000000e+00	1.000000e+00	1.000000e+00	1.000000e+00	1.000000e+00	1.000000e+00	1.000000e+00	1.000000e+00	1.000000e+00	1.000000e+00	1.000000e+00	1.000000e+00	1.000000e+00	1.000000e+00	1.000000e+00	1.000000e+00	1.000000e+00	4.000000e+00	4.000000e+00	4.000000e+00	4.000000e+00	4.000000e+00	4.000000e+00	4.000000e+00	4.000000e+00	4.000000e+00	4.000000e+00	4.000000e+00	4.000000e+00	3.999999e+00	3.999991e+00	3.999896e+00	3.998814e+00	3.985420e+00	3.905816e+00	3.804253e+00	3.703374e+00	3.606942e+00	3.516198e+00	3.427062e+00	3.340088e+00	3.252171e+00	3.164855e+00	3.079074e+00	2.995074e+00	2.912754e+00	2.832003e+00	2.752766e+00	2.675008e+00	2.598707e+00	2.523817e+00	2.450291e+00	2.378095e+00	2.307205e+00	2.237601e+00	2.169228e+00	2.102044e+00	2.035961e+00	1.971027e+00	1.906969e+00	1.843925e+00	1.780413e+00	1.735328e+00	1.717130e+00	1.709939e+00	1.714343e+00	1.739225e+00	1.763291e+00	1.779041e+00	1.794203e+00	1.810166e+00	1.824549e+00	1.837891e+00	1.851338e+00	1.864356e+00	1.875369e+00	1.884182e+00	1.891804e+00	1.898310e+00	1.904580e+00	1.910524e+00	1.915985e+00	1.921047e+00	1.926479e+00	1.931991e+00	1.938571e+00	1.944662e+00	1.949869e+00	1.950421e+00	1.949572e+00	1.947968e+00	1.944880e+00	1.942390e+00	1.949073e+00	1.961093e+00	1.975652e+00	1.975161e+00	1.865058e+00	1.292983e+00	1.007264e+00	1.000074e+00	1.000001e+00	1.000000e+00	1.000000e+00	1.000000e+00	1.000000e+00	1.000000e+00	1.000000e+00	1.000000e+00	1.000000e+00	1.000000e+00	1.000000e+00	1.000000e+00	1.000000e+00	1.000000e+00	1.000000e+00	1.000000e+00	1.000000e+00	1.000000e+00	4.000000e+00	4.000000e+00	4.000000e+00	4.000000e+00	4.000000e+00	4.000000e+00	4.000000e+00	4.000000e+00	4.000000e+00	4.000000e+00	4.000000e+00	4.000000e+00	3.999999e+00	3.999985e+00	3.999827e+00	3.997920e+00	3.973943e+00	3.880621e+00	3.776392e+00	3.673612e+00	3.575706e+00	3.485394e+00	3.400004e+00	3.315576e+00	3.232164e+00	3.147271e+00	3.062885e+00	2.979886e+00	2.898501e+00	2.818663e+00	2.740274e+00	2.663282e+00	2.587680e+00	2.513443e+00	2.440533e+00	2.368907e+00	2.298526e+00	2.229382e+00	2.161439e+00	2.094680e+00	2.029016e+00	1.964474e+00	1.900837e+00	1.838011e+00	1.775246e+00	1.734134e+00	1.717909e+00	1.711486e+00	1.719920e+00	1.745495e+00	1.768157e+00	1.784425e+00	1.801933e+00	1.818414e+00	1.832353e+00	1.844875e+00	1.857121e+00	1.869173e+00	1.881303e+00	1.892049e+00	1.900463e+00	1.907099e+00	1.912302e+00	1.916653e+00	1.921366e+00	1.925898e+00	1.930254e+00	1.933961e+00	1.938034e+00	1.941461e+00	1.942319e+00	1.942554e+00	1.943199e+00	1.943880e+00	1.943609e+00	1.945888e+00	1.953932e+00	1.965322e+00	1.978096e+00	1.975710e+00	1.841262e+00	1.245180e+00	1.005280e+00	1.000048e+00	1.000000e+00	1.000000e+00	1.000000e+00	1.000000e+00	1.000000e+00	1.000000e+00	1.000000e+00	1.000000e+00	1.000000e+00	1.000000e+00	1.000000e+00	1.000000e+00	1.000000e+00	1.000000e+00	1.000000e+00	1.000000e+00	1.000000e+00	1.000000e+00	4.000000e+00	4.000000e+00	4.000000e+00	4.000000e+00	4.000000e+00	4.000000e+00	4.000000e+00	4.000000e+00	4.000000e+00	4.000000e+00	4.000000e+00	4.000000e+00	3.999998e+00	3.999972e+00	3.999651e+00	3.995684e+00	3.951907e+00	3.847672e+00	3.740644e+00	3.638071e+00	3.541839e+00	3.452605e+00	3.368906e+00	3.287405e+00	3.206682e+00	3.125834e+00	3.043609e+00	2.961926e+00	2.881552e+00	2.802681e+00	2.725252e+00	2.649168e+00	2.574412e+00	2.500958e+00	2.428789e+00	2.357858e+00	2.288118e+00	2.219559e+00	2.152155e+00	2.085914e+00	2.020776e+00	1.956705e+00	1.893629e+00	1.831039e+00	1.769480e+00	1.732948e+00	1.718954e+00	1.713643e+00	1.727387e+00	1.753895e+00	1.775102e+00	1.791079e+00	1.808368e+00	1.824224e+00	1.837378e+00	1.848977e+00	1.860048e+00	1.870578e+00	1.880580e+00	1.891263e+00	1.902966e+00	1.912531e+00	1.918602e+00	1.922571e+00	1.926250e+00	1.928976e+00	1.931052e+00	1.932579e+00	1.933670e+00	1.933335e+00	1.934823e+00	1.937034e+00	1.939369e+00	1.941922e+00	1.946877e+00	1.953755e+00	1.962311e+00	1.972861e+00	1.980978e+00	1.975603e+00	1.802841e+00	1.194860e+00	1.003623e+00	1.000032e+00	1.000000e+00	1.000000e+00	1.000000e+00	1.000000e+00	1.000000e+00	1.000000e+00	1.000000e+00	1.000000e+00	1.000000e+00	1.000000e+00	1.000000e+00	1.000000e+00	1.000000e+00	1.000000e+00	1.000000e+00	1.000000e+00	1.000000e+00	1.000000e+00	4.000000e+00	4.000000e+00	4.000000e+00	4.000000e+00	4.000000e+00	4.000000e+00	4.000000e+00	4.000000e+00	4.000000e+00	4.000000e+00	4.000000e+00	4.000000e+00	3.999995e+00	3.999934e+00	3.999185e+00	3.990391e+00	3.912792e+00	3.804111e+00	3.697275e+00	3.598181e+00	3.505834e+00	3.418408e+00	3.335495e+00	3.255903e+00	3.177020e+00	3.099163e+00	3.020594e+00	2.941022e+00	2.861969e+00	2.784159e+00	2.707729e+00	2.632639e+00	2.558837e+00	2.486280e+00	2.414958e+00	2.344830e+00	2.275851e+00	2.208003e+00	2.141258e+00	2.075633e+00	2.011129e+00	1.947605e+00	1.885222e+00	1.822804e+00	1.763156e+00	1.731671e+00	1.720282e+00	1.717065e+00	1.736776e+00	1.764374e+00	1.782721e+00	1.796250e+00	1.812018e+00	1.826828e+00	1.839309e+00	1.850075e+00	1.860125e+00	1.869554e+00	1.878209e+00	1.886955e+00	1.897881e+00	1.910199e+00	1.921989e+00	1.928847e+00	1.932082e+00	1.933619e+00	1.933951e+00	1.934454e+00	1.934170e+00	1.932536e+00	1.933767e+00	1.935971e+00	1.940017e+00	1.946595e+00	1.955301e+00	1.964267e+00	1.973419e+00	1.981121e+00	1.985834e+00	1.973097e+00	1.744596e+00	1.147950e+00	1.002182e+00	1.000019e+00	1.000000e+00	1.000000e+00	1.000000e+00	1.000000e+00	1.000000e+00	1.000000e+00	1.000000e+00	1.000000e+00	1.000000e+00	1.000000e+00	1.000000e+00	1.000000e+00	1.000000e+00	1.000000e+00	1.000000e+00	1.000000e+00	1.000000e+00	1.000000e+00	4.000000e+00	4.000000e+00	4.000000e+00	4.000000e+00	4.000000e+00	4.000000e+00	4.000000e+00	4.000000e+00	4.000000e+00	4.000000e+00	4.000000e+00	3.999999e+00	3.999986e+00	3.999823e+00	3.997699e+00	3.969301e+00	3.862159e+00	3.750239e+00	3.648261e+00	3.555264e+00	3.467440e+00	3.382529e+00	3.300415e+00	3.221272e+00	3.144335e+00	3.068145e+00	2.992825e+00	2.916591e+00	2.839612e+00	2.763176e+00	2.687851e+00	2.613799e+00	2.541011e+00	2.469426e+00	2.399029e+00	2.329787e+00	2.261660e+00	2.194622e+00	2.128643e+00	2.063729e+00	1.999958e+00	1.937078e+00	1.875481e+00	1.812993e+00	1.756903e+00	1.730629e+00	1.721807e+00	1.722724e+00	1.747759e+00	1.774514e+00	1.789318e+00	1.799671e+00	1.813159e+00	1.826576e+00	1.838558e+00	1.848880e+00	1.858166e+00	1.866620e+00	1.874364e+00	1.882034e+00	1.890782e+00	1.901580e+00	1.913551e+00	1.928813e+00	1.940094e+00	1.944212e+00	1.943926e+00	1.943478e+00	1.943111e+00	1.941731e+00	1.941201e+00	1.945534e+00	1.951048e+00	1.958320e+00	1.967209e+00	1.977412e+00	1.985136e+00	1.988960e+00	1.987585e+00	1.960296e+00	1.674939e+00	1.107437e+00	1.001304e+00	1.000012e+00	1.000000e+00	1.000000e+00	1.000000e+00	1.000000e+00	1.000000e+00	1.000000e+00	1.000000e+00	1.000000e+00	1.000000e+00	1.000000e+00	1.000000e+00	1.000000e+00	1.000000e+00	1.000000e+00	1.000000e+00	1.000000e+00	1.000000e+00	1.000000e+00	3.999998e+00	3.999999e+00	4.000000e+00	4.000000e+00	4.000000e+00	4.000000e+00	4.000000e+00	4.000000e+00	4.000000e+00	4.000000e+00	4.000000e+00	3.999996e+00	3.999953e+00	3.999390e+00	3.992045e+00	3.916474e+00	3.799066e+00	3.691096e+00	3.596373e+00	3.509530e+00	3.426216e+00	3.344255e+00	3.263603e+00	3.184842e+00	3.108670e+00	3.034160e+00	2.960639e+00	2.887735e+00	2.813974e+00	2.739597e+00	2.665721e+00	2.592829e+00	2.521094e+00	2.450512e+00	2.381081e+00	2.312768e+00	2.245550e+00	2.179394e+00	2.114269e+00	2.050164e+00	1.987209e+00	1.925122e+00	1.864261e+00	1.802086e+00	1.751281e+00	1.730534e+00	1.723745e+00	1.731275e+00	1.757814e+00	1.782855e+00	1.794499e+00	1.801986e+00	1.812811e+00	1.824495e+00	1.835876e+00	1.846160e+00	1.855026e+00	1.862748e+00	1.869698e+00	1.876035e+00	1.882793e+00	1.890857e+00	1.901517e+00	1.914167e+00	1.930630e+00	1.946740e+00	1.954135e+00	1.954590e+00	1.954530e+00	1.955288e+00	1.958247e+00	1.961684e+00	1.965201e+00	1.971664e+00	1.980306e+00	1.987153e+00	1.987727e+00	1.985385e+00	1.978949e+00	1.940798e+00	1.606016e+00	1.069702e+00	1.000671e+00	1.000007e+00	1.000000e+00	1.000000e+00	1.000000e+00	1.000000e+00	1.000000e+00	1.000000e+00	1.000000e+00	1.000000e+00	1.000000e+00	1.000000e+00	1.000000e+00	1.000000e+00	1.000000e+00	1.000000e+00	1.000000e+00	1.000000e+00	1.000000e+00	1.000000e+00	3.999991e+00	3.999996e+00	3.999999e+00	3.999999e+00	4.000000e+00	4.000000e+00	4.000000e+00	4.000000e+00	4.000000e+00	3.999999e+00	3.999996e+00	3.999975e+00	3.999760e+00	3.996980e+00	3.957604e+00	3.840551e+00	3.727879e+00	3.629709e+00	3.542370e+00	3.460900e+00	3.381737e+00	3.302986e+00	3.224631e+00	3.147198e+00	3.071525e+00	2.997987e+00	2.925750e+00	2.854576e+00	2.783922e+00	2.712761e+00	2.641072e+00	2.569744e+00	2.499237e+00	2.429723e+00	2.361291e+00	2.293933e+00	2.227652e+00	2.162414e+00	2.098198e+00	2.034990e+00	1.972909e+00	1.911811e+00	1.851592e+00	1.790917e+00	1.746669e+00	1.731483e+00	1.726870e+00	1.740369e+00	1.766045e+00	1.788965e+00	1.798454e+00	1.803962e+00	1.812210e+00	1.821721e+00	1.832117e+00	1.842326e+00	1.851028e+00	1.858432e+00	1.865133e+00	1.870643e+00	1.875865e+00	1.880913e+00	1.887775e+00	1.898223e+00	1.911608e+00	1.930206e+00	1.952646e+00	1.964292e+00	1.969219e+00	1.973925e+00	1.978454e+00	1.978630e+00	1.979273e+00	1.983438e+00	1.987017e+00	1.984511e+00	1.980881e+00	1.977860e+00	1.969870e+00	1.921063e+00	1.529785e+00	1.038588e+00	1.000389e+00	1.000004e+00	1.000000e+00	1.000000e+00	1.000000e+00	1.000000e+00	1.000000e+00	1.000000e+00	1.000000e+00	1.000000e+00	1.000000e+00	1.000000e+00	1.000000e+00	1.000000e+00	1.000000e+00	1.000000e+00	1.000000e+00	1.000000e+00	1.000000e+00	1.000000e+00	3.999962e+00	3.999985e+00	3.999994e+00	3.999998e+00	3.999999e+00	3.999999e+00	3.999999e+00	3.999998e+00	3.999995e+00	3.999986e+00	3.999953e+00	3.999760e+00	3.998050e+00	3.975565e+00	3.870129e+00	3.757164e+00	3.656297e+00	3.567069e+00	3.486224e+00	3.409496e+00	3.334142e+00	3.258714e+00	3.183206e+00	3.107843e+00	3.033347e+00	2.960299e+00	2.889118e+00	2.819293e+00	2.750321e+00	2.681922e+00	2.613190e+00	2.544154e+00	2.475335e+00	2.407139e+00	2.339825e+00	2.273479e+00	2.208161e+00	2.143861e+00	2.080580e+00	2.018337e+00	1.957174e+00	1.897262e+00	1.837724e+00	1.779925e+00	1.743874e+00	1.733401e+00	1.731741e+00	1.748018e+00	1.772071e+00	1.793126e+00	1.801737e+00	1.806123e+00	1.812775e+00	1.820334e+00	1.829294e+00	1.839472e+00	1.849501e+00	1.858466e+00	1.866652e+00	1.873536e+00	1.879579e+00	1.883627e+00	1.886635e+00	1.889782e+00	1.896927e+00	1.908527e+00	1.929480e+00	1.958530e+00	1.980662e+00	1.989443e+00	1.995325e+00	1.994008e+00	1.992745e+00	1.990657e+00	1.984956e+00	1.978503e+00	1.972333e+00	1.969820e+00	1.962858e+00	1.899163e+00	1.441531e+00	1.016189e+00	1.000213e+00	1.000002e+00	1.000000e+00	1.000000e+00	1.000000e+00	1.000000e+00	1.000000e+00	1.000000e+00	1.000000e+00	1.000000e+00	1.000000e+00	1.000000e+00	1.000000e+00	1.000000e+00	1.000000e+00	1.000000e+00	1.000000e+00	1.000000e+00	1.000000e+00	1.000000e+00	3.999833e+00	3.999932e+00	3.999970e+00	3.999986e+00	3.999991e+00	3.999991e+00	3.999985e+00	3.999972e+00	3.999934e+00	3.999823e+00	3.999390e+00	3.996980e+00	3.975565e+00	3.881532e+00	3.774400e+00	3.674749e+00	3.584779e+00	3.503425e+00	3.428165e+00	3.355684e+00	3.283895e+00	3.211730e+00	3.139273e+00	3.066391e+00	2.993913e+00	2.922018e+00	2.851496e+00	2.782488e+00	2.714788e+00	2.648005e+00	2.581757e+00	2.515416e+00	2.448906e+00	2.382531e+00	2.316656e+00	2.251499e+00	2.187237e+00	2.123923e+00	2.061606e+00	2.000384e+00	1.940215e+00	1.881575e+00	1.823199e+00	1.769820e+00	1.743100e+00	1.735725e+00	1.736420e+00	1.754077e+00	1.776272e+00	1.795994e+00	1.804798e+00	1.809321e+00	1.816022e+00	1.824367e+00	1.833931e+00	1.844057e+00	1.854318e+00	1.864085e+00	1.873036e+00	1.880753e+00	1.887429e+00	1.892264e+00	1.895353e+00	1.897330e+00	1.898980e+00	1.902733e+00	1.911488e+00	1.932287e+00	1.959597e+00	1.985026e+00	1.998945e+00	2.005650e+00	1.999796e+00	1.991595e+00	1.982594e+00	1.972810e+00	1.966536e+00	1.963834e+00	1.959348e+00	1.870349e+00	1.331125e+00	1.009025e+00	1.000098e+00	1.000001e+00	1.000000e+00	1.000000e+00	1.000000e+00	1.000000e+00	1.000000e+00	1.000000e+00	1.000000e+00	1.000000e+00	1.000000e+00	1.000000e+00	1.000000e+00	1.000000e+00	1.000000e+00	1.000000e+00	1.000000e+00	1.000000e+00	1.000000e+00	1.000000e+00	3.999270e+00	3.999691e+00	3.999846e+00	3.999909e+00	3.999922e+00	3.999896e+00	3.999827e+00	3.999651e+00	3.999185e+00	3.997699e+00	3.992045e+00	3.957604e+00	3.870129e+00	3.774400e+00	3.681319e+00	3.593993e+00	3.513549e+00	3.439240e+00	3.368803e+00	3.300136e+00	3.231629e+00	3.162546e+00	3.093013e+00	3.022938e+00	2.952897e+00	2.882790e+00	2.813403e+00	2.745157e+00	2.678125e+00	2.612384e+00	2.547641e+00	2.483504e+00	2.419454e+00	2.355368e+00	2.291414e+00	2.227814e+00	2.164850e+00	2.102675e+00	2.041422e+00	1.981285e+00	1.922272e+00	1.864825e+00	1.808258e+00	1.762250e+00	1.743722e+00	1.737990e+00	1.740924e+00	1.758893e+00	1.779354e+00	1.798164e+00	1.808813e+00	1.815744e+00	1.824831e+00	1.834734e+00	1.844377e+00	1.853655e+00	1.862597e+00	1.871178e+00	1.879833e+00	1.888142e+00	1.895317e+00	1.901119e+00	1.905546e+00	1.908104e+00	1.909580e+00	1.911063e+00	1.912984e+00	1.919791e+00	1.929570e+00	1.950886e+00	1.975169e+00	1.990011e+00	1.995713e+00	1.991960e+00	1.981087e+00	1.971019e+00	1.966615e+00	1.968742e+00	1.964301e+00	1.822249e+00	1.217834e+00	1.004274e+00	1.000037e+00	1.000000e+00	1.000000e+00	1.000000e+00	1.000000e+00	1.000000e+00	1.000000e+00	1.000000e+00	1.000000e+00	1.000000e+00	1.000000e+00	1.000000e+00	1.000000e+00	1.000000e+00	1.000000e+00	1.000000e+00	1.000000e+00	1.000000e+00	1.000000e+00	1.000000e+00	3.996804e+00	3.998472e+00	3.999030e+00	3.999233