# vtk DataFile Version 3.0
vtk output
ASCII
DATASET STRUCTURED_GRID
DIMENSIONS 102 102 1
POINTS 10404 double
0.000000e+00	0.000000e+00	0.0	1.980198e+00	0.000000e+00	0.0	3.960396e+00	0.000000e+00	0.0	5.940594e+00	0.000000e+00	0.0	7.920792e+00	0.000000e+00	0.0	9.900990e+00	0.000000e+00	0.0	1.188119e+01	0.000000e+00	0.0	1.386139e+01	0.000000e+00	0.0	1.584158e+01	0.000000e+00	0.0	1.782178e+01	0.000000e+00	0.0	1.980198e+01	0.000000e+00	0.0	2.178218e+01	0.000000e+00	0.0	2.376238e+01	0.000000e+00	0.0	2.574257e+01	0.000000e+00	0.0	2.772277e+01	0.000000e+00	0.0	2.970297e+01	0.000000e+00	0.0	3.168317e+01	0.000000e+00	0.0	3.366337e+01	0.000000e+00	0.0	3.564356e+01	0.000000e+00	0.0	3.762376e+01	0.000000e+00	0.0	3.960396e+01	0.000000e+00	0.0	4.158416e+01	0.000000e+00	0.0	4.356436e+01	0.000000e+00	0.0	4.554455e+01	0.000000e+00	0.0	4.752475e+01	0.000000e+00	0.0	4.950495e+01	0.000000e+00	0.0	5.148515e+01	0.000000e+00	0.0	5.346535e+01	0.000000e+00	0.0	5.544554e+01	0.000000e+00	0.0	5.742574e+01	0.000000e+00	0.0	5.940594e+01	0.000000e+00	0.0	6.138614e+01	0.000000e+00	0.0	6.336634e+01	0.000000e+00	0.0	6.534653e+01	0.000000e+00	0.0	6.732673e+01	0.000000e+00	0.0	6.930693e+01	0.000000e+00	0.0	7.128713e+01	0.000000e+00	0.0	7.326733e+01	0.000000e+00	0.0	7.524752e+01	0.000000e+00	0.0	7.722772e+01	0.000000e+00	0.0	7.920792e+01	0.000000e+00	0.0	8.118812e+01	0.000000e+00	0.0	8.316832e+01	0.000000e+00	0.0	8.514851e+01	0.000000e+00	0.0	8.712871e+01	0.000000e+00	0.0	8.910891e+01	0.000000e+00	0.0	9.108911e+01	0.000000e+00	0.0	9.306931e+01	0.000000e+00	0.0	9.504950e+01	0.000000e+00	0.0	9.702970e+01	0.000000e+00	0.0	9.900990e+01	0.000000e+00	0.0	1.009901e+02	0.000000e+00	0.0	1.029703e+02	0.000000e+00	0.0	1.049505e+02	0.000000e+00	0.0	1.069307e+02	0.000000e+00	0.0	1.089109e+02	0.000000e+00	0.0	1.108911e+02	0.000000e+00	0.0	1.128713e+02	0.000000e+00	0.0	1.148515e+02	0.000000e+00	0.0	1.168317e+02	0.000000e+00	0.0	1.188119e+02	0.000000e+00	0.0	1.207921e+02	0.000000e+00	0.0	1.227723e+02	0.000000e+00	0.0	1.247525e+02	0.000000e+00	0.0	1.267327e+02	0.000000e+00	0.0	1.287129e+02	0.000000e+00	0.0	1.306931e+02	0.000000e+00	0.0	1.326733e+02	0.000000e+00	0.0	1.346535e+02	0.000000e+00	0.0	1.366337e+02	0.000000e+00	0.0	1.386139e+02	0.000000e+00	0.0	1.405941e+02	0.000000e+00	0.0	1.425743e+02	0.000000e+00	0.0	1.445545e+02	0.000000e+00	0.0	1.465347e+02	0.000000e+00	0.0	1.485149e+02	0.000000e+00	0.0	1.504950e+02	0.000000e+00	0.0	1.524752e+02	0.000000e+00	0.0	1.544554e+02	0.000000e+00	0.0	1.564356e+02	0.000000e+00	0.0	1.584158e+02	0.000000e+00	0.0	1.603960e+02	0.000000e+00	0.0	1.623762e+02	0.000000e+00	0.0	1.643564e+02	0.000000e+00	0.0	1.663366e+02	0.000000e+00	0.0	1.683168e+02	0.000000e+00	0.0	1.702970e+02	0.000000e+00	0.0	1.722772e+02	0.000000e+00	0.0	1.742574e+02	0.000000e+00	0.0	1.762376e+02	0.000000e+00	0.0	1.782178e+02	0.000000e+00	0.0	1.801980e+02	0.000000e+00	0.0	1.821782e+02	0.000000e+00	0.0	1.841584e+02	0.000000e+00	0.0	1.861386e+02	0.000000e+00	0.0	1.881188e+02	0.000000e+00	0.0	1.900990e+02	0.000000e+00	0.0	1.920792e+02	0.000000e+00	0.0	1.940594e+02	0.000000e+00	0.0	1.960396e+02	0.000000e+00	0.0	1.980198e+02	0.000000e+00	0.0	2.000000e+02	0.000000e+00	0.0	0.000000e+00	1.980198e+00	0.0	1.980198e+00	1.980198e+00	0.0	3.960396e+00	1.980198e+00	0.0	5.940594e+00	1.980198e+00	0.0	7.920792e+00	1.980198e+00	0.0	9.900990e+00	1.980198e+00	0.0	1.188119e+01	1.980198e+00	0.0	1.386139e+01	1.980198e+00	0.0	1.584158e+01	1.980198e+00	0.0	1.782178e+01	1.980198e+00	0.0	1.980198e+01	1.980198e+00	0.0	2.178218e+01	1.980198e+00	0.0	2.376238e+01	1.980198e+00	0.0	2.574257e+01	1.980198e+00	0.0	2.772277e+01	1.980198e+00	0.0	2.970297e+01	1.980198e+00	0.0	3.168317e+01	1.980198e+00	0.0	3.366337e+01	1.980198e+00	0.0	3.564356e+01	1.980198e+00	0.0	3.762376e+01	1.980198e+00	0.0	3.960396e+01	1.980198e+00	0.0	4.158416e+01	1.980198e+00	0.0	4.356436e+01	1.980198e+00	0.0	4.554455e+01	1.980198e+00	0.0	4.752475e+01	1.980198e+00	0.0	4.950495e+01	1.980198e+00	0.0	5.148515e+01	1.980198e+00	0.0	5.346535e+01	1.980198e+00	0.0	5.544554e+01	1.980198e+00	0.0	5.742574e+01	1.980198e+00	0.0	5.940594e+01	1.980198e+00	0.0	6.138614e+01	1.980198e+00	0.0	6.336634e+01	1.980198e+00	0.0	6.534653e+01	1.980198e+00	0.0	6.732673e+01	1.980198e+00	0.0	6.930693e+01	1.980198e+00	0.0	7.128713e+01	1.980198e+00	0.0	7.326733e+01	1.980198e+00	0.0	7.524752e+01	1.980198e+00	0.0	7.722772e+01	1.980198e+00	0.0	7.920792e+01	1.980198e+00	0.0	8.118812e+01	1.980198e+00	0.0	8.316832e+01	1.980198e+00	0.0	8.514851e+01	1.980198e+00	0.0	8.712871e+01	1.980198e+00	0.0	8.910891e+01	1.980198e+00	0.0	9.108911e+01	1.980198e+00	0.0	9.306931e+01	1.980198e+00	0.0	9.504950e+01	1.980198e+00	0.0	9.702970e+01	1.980198e+00	0.0	9.900990e+01	1.980198e+00	0.0	1.009901e+02	1.980198e+00	0.0	1.029703e+02	1.980198e+00	0.0	1.049505e+02	1.980198e+00	0.0	1.069307e+02	1.980198e+00	0.0	1.089109e+02	1.980198e+00	0.0	1.108911e+02	1.980198e+00	0.0	1.128713e+02	1.980198e+00	0.0	1.148515e+02	1.980198e+00	0.0	1.168317e+02	1.980198e+00	0.0	1.188119e+02	1.980198e+00	0.0	1.207921e+02	1.980198e+00	0.0	1.227723e+02	1.980198e+00	0.0	1.247525e+02	1.980198e+00	0.0	1.267327e+02	1.980198e+00	0.0	1.287129e+02	1.980198e+00	0.0	1.306931e+02	1.980198e+00	0.0	1.326733e+02	1.980198e+00	0.0	1.346535e+02	1.980198e+00	0.0	1.366337e+02	1.980198e+00	0.0	1.386139e+02	1.980198e+00	0.0	1.405941e+02	1.980198e+00	0.0	1.425743e+02	1.980198e+00	0.0	1.445545e+02	1.980198e+00	0.0	1.465347e+02	1.980198e+00	0.0	1.485149e+02	1.980198e+00	0.0	1.504950e+02	1.980198e+00	0.0	1.524752e+02	1.980198e+00	0.0	1.544554e+02	1.980198e+00	0.0	1.564356e+02	1.980198e+00	0.0	1.584158e+02	1.980198e+00	0.0	1.603960e+02	1.980198e+00	0.0	1.623762e+02	1.980198e+00	0.0	1.643564e+02	1.980198e+00	0.0	1.663366e+02	1.980198e+00	0.0	1.683168e+02	1.980198e+00	0.0	1.702970e+02	1.980198e+00	0.0	1.722772e+02	1.980198e+00	0.0	1.742574e+02	1.980198e+00	0.0	1.762376e+02	1.980198e+00	0.0	1.782178e+02	1.980198e+00	0.0	1.801980e+02	1.980198e+00	0.0	1.821782e+02	1.980198e+00	0.0	1.841584e+02	1.980198e+00	0.0	1.861386e+02	1.980198e+00	0.0	1.881188e+02	1.980198e+00	0.0	1.900990e+02	1.980198e+00	0.0	1.920792e+02	1.980198e+00	0.0	1.940594e+02	1.980198e+00	0.0	1.960396e+02	1.980198e+00	0.0	1.980198e+02	1.980198e+00	0.0	2.000000e+02	1.980198e+00	0.0	0.000000e+00	3.960396e+00	0.0	1.980198e+00	3.960396e+00	0.0	3.960396e+00	3.960396e+00	0.0	5.940594e+00	3.960396e+00	0.0	7.920792e+00	3.960396e+00	0.0	9.900990e+00	3.960396e+00	0.0	1.188119e+01	3.960396e+00	0.0	1.386139e+01	3.960396e+00	0.0	1.584158e+01	3.960396e+00	0.0	1.782178e+01	3.960396e+00	0.0	1.980198e+01	3.960396e+00	0.0	2.178218e+01	3.960396e+00	0.0	2.376238e+01	3.960396e+00	0.0	2.574257e+01	3.960396e+00	0.0	2.772277e+01	3.960396e+00	0.0	2.970297e+01	3.960396e+00	0.0	3.168317e+01	3.960396e+00	0.0	3.366337e+01	3.960396e+00	0.0	3.564356e+01	3.960396e+00	0.0	3.762376e+01	3.960396e+00	0.0	3.960396e+01	3.960396e+00	0.0	4.158416e+01	3.960396e+00	0.0	4.356436e+01	3.960396e+00	0.0	4.554455e+01	3.960396e+00	0.0	4.752475e+01	3.960396e+00	0.0	4.950495e+01	3.960396e+00	0.0	5.148515e+01	3.960396e+00	0.0	5.346535e+01	3.960396e+00	0.0	5.544554e+01	3.960396e+00	0.0	5.742574e+01	3.960396e+00	0.0	5.940594e+01	3.960396e+00	0.0	6.138614e+01	3.960396e+00	0.0	6.336634e+01	3.960396e+00	0.0	6.534653e+01	3.960396e+00	0.0	6.732673e+01	3.960396e+00	0.0	6.930693e+01	3.960396e+00	0.0	7.128713e+01	3.960396e+00	0.0	7.326733e+01	3.960396e+00	0.0	7.524752e+01	3.960396e+00	0.0	7.722772e+01	3.960396e+00	0.0	7.920792e+01	3.960396e+00	0.0	8.118812e+01	3.960396e+00	0.0	8.316832e+01	3.960396e+00	0.0	8.514851e+01	3.960396e+00	0.0	8.712871e+01	3.960396e+00	0.0	8.910891e+01	3.960396e+00	0.0	9.108911e+01	3.960396e+00	0.0	9.306931e+01	3.960396e+00	0.0	9.504950e+01	3.960396e+00	0.0	9.702970e+01	3.960396e+00	0.0	9.900990e+01	3.960396e+00	0.0	1.009901e+02	3.960396e+00	0.0	1.029703e+02	3.960396e+00	0.0	1.049505e+02	3.960396e+00	0.0	1.069307e+02	3.960396e+00	0.0	1.089109e+02	3.960396e+00	0.0	1.108911e+02	3.960396e+00	0.0	1.128713e+02	3.960396e+00	0.0	1.148515e+02	3.960396e+00	0.0	1.168317e+02	3.960396e+00	0.0	1.188119e+02	3.960396e+00	0.0	1.207921e+02	3.960396e+00	0.0	1.227723e+02	3.960396e+00	0.0	1.247525e+02	3.960396e+00	0.0	1.267327e+02	3.960396e+00	0.0	1.287129e+02	3.960396e+00	0.0	1.306931e+02	3.960396e+00	0.0	1.326733e+02	3.960396e+00	0.0	1.346535e+02	3.960396e+00	0.0	1.366337e+02	3.960396e+00	0.0	1.386139e+02	3.960396e+00	0.0	1.405941e+02	3.960396e+00	0.0	1.425743e+02	3.960396e+00	0.0	1.445545e+02	3.960396e+00	0.0	1.465347e+02	3.960396e+00	0.0	1.485149e+02	3.960396e+00	0.0	1.504950e+02	3.960396e+00	0.0	1.524752e+02	3.960396e+00	0.0	1.544554e+02	3.960396e+00	0.0	1.564356e+02	3.960396e+00	0.0	1.584158e+02	3.960396e+00	0.0	1.603960e+02	3.960396e+00	0.0	1.623762e+02	3.960396e+00	0.0	1.643564e+02	3.960396e+00	0.0	1.663366e+02	3.960396e+00	0.0	1.683168e+02	3.960396e+00	0.0	1.702970e+02	3.960396e+00	0.0	1.722772e+02	3.960396e+00	0.0	1.742574e+02	3.960396e+00	0.0	1.762376e+02	3.960396e+00	0.0	1.782178e+02	3.960396e+00	0.0	1.801980e+02	3.960396e+00	0.0	1.821782e+02	3.960396e+00	0.0	1.841584e+02	3.960396e+00	0.0	1.861386e+02	3.960396e+00	0.0	1.881188e+02	3.960396e+00	0.0	1.900990e+02	3.960396e+00	0.0	1.920792e+02	3.960396e+00	0.0	1.940594e+02	3.960396e+00	0.0	1.960396e+02	3.960396e+00	0.0	1.980198e+02	3.960396e+00	0.0	2.000000e+02	3.960396e+00	0.0	0.000000e+00	5.940594e+00	0.0	1.980198e+00	5.940594e+00	0.0	3.960396e+00	5.940594e+00	0.0	5.940594e+00	5.940594e+00	0.0	7.920792e+00	5.940594e+00	0.0	9.900990e+00	5.940594e+00	0.0	1.188119e+01	5.940594e+00	0.0	1.386139e+01	5.940594e+00	0.0	1.584158e+01	5.940594e+00	0.0	1.782178e+01	5.940594e+00	0.0	1.980198e+01	5.940594e+00	0.0	2.178218e+01	5.940594e+00	0.0	2.376238e+01	5.940594e+00	0.0	2.574257e+01	5.940594e+00	0.0	2.772277e+01	5.940594e+00	0.0	2.970297e+01	5.940594e+00	0.0	3.168317e+01	5.940594e+00	0.0	3.366337e+01	5.940594e+00	0.0	3.564356e+01	5.940594e+00	0.0	3.762376e+01	5.940594e+00	0.0	3.960396e+01	5.940594e+00	0.0	4.158416e+01	5.940594e+00	0.0	4.356436e+01	5.940594e+00	0.0	4.554455e+01	5.940594
[...]
POINT_DATA 10404

SCALARS Height double 1
LOOKUP_TABLE default
4.000000e+00	4.000000e+00	4.000000e+00	4.000000e+00	4.000000e+00	4.000000e+00	4.000000e+00	4.000000e+00	4.000000e+00	4.000000e+00	4.000000e+00	3.999999e+00	3.999994e+00	3.999972e+00	3.999880e+00	3.999479e+00	3.997725e+00	3.990018e+00	3.957528e+00	3.887391e+00	3.799372e+00	3.703691e+00	3.604666e+00	3.504930e+00	3.406004e+00	3.309007e+00	3.214348e+00	3.122130e+00	3.032275e+00	2.944641e+00	2.859067e+00	2.775395e+00	2.693502e+00	2.613293e+00	2.534679e+00	2.457586e+00	2.381973e+00	2.307800e+00	2.235015e+00	2.163531e+00	2.093277e+00	2.024177e+00	1.956188e+00	1.889181e+00	1.822486e+00	1.763034e+00	1.736105e+00	1.725225e+00	1.720587e+00	1.738488e+00	1.765206e+00	1.784108e+00	1.795360e+00	1.808317e+00	1.820245e+00	1.830319e+00	1.839929e+00	1.848757e+00	1.856850e+00	1.864546e+00	1.872748e+00	1.881065e+00	1.888917e+00	1.896372e+00	1.903424e+00	1.909962e+00	1.916224e+00	1.922927e+00	1.930435e+00	1.939987e+00	1.952023e+00	1.965629e+00	1.979396e+00	1.990886e+00	1.997530e+00	1.997488e+00	1.993084e+00	1.985503e+00	1.962271e+00	1.839238e+00	1.389730e+00	1.032112e+00	1.001095e+00	1.000030e+00	1.000001e+00	1.000000e+00	1.000000e+00	1.000000e+00	1.000000e+00	1.000000e+00	1.000000e+00	1.000000e+00	1.000000e+00	1.000000e+00	1.000000e+00	1.000000e+00	1.000000e+00	1.000000e+00	1.000000e+00	1.000000e+00	1.000000e+00	1.000000e+00	4.000000e+00	4.000000e+00	4.000000e+00	4.000000e+00	4.000000e+00	4.000000e+00	4.000000e+00	4.000000e+00	4.000000e+00	4.000000e+00	4.000000e+00	3.999999e+00	3.999997e+00	3.999989e+00	3.999952e+00	3.999783e+00	3.998956e+00	3.994138e+00	3.960457e+00	3.884714e+00	3.797364e+00	3.703389e+00	3.605582e+00	3.506703e+00	3.408747e+00	3.312464e+00	3.218479e+00	3.126816e+00	3.037415e+00	2.950150e+00	2.864869e+00	2.781431e+00	2.699728e+00	2.619674e+00	2.541189e+00	2.464206e+00	2.388685e+00	2.314581e+00	2.241841e+00	2.170394e+00	2.100182e+00	2.031111e+00	1.963139e+00	1.896145e+00	1.829440e+00	1.770074e+00	1.743131e+00	1.732145e+00	1.727368e+00	1.745008e+00	1.771645e+00	1.790243e+00	1.800906e+00	1.813554e+00	1.825478e+00	1.835842e+00	1.845699e+00	1.854689e+00	1.862973e+00	1.870939e+00	1.879287e+00	1.887782e+00	1.896004e+00	1.904061e+00	1.911689e+00	1.918594e+00	1.925219e+00	1.932284e+00	1.940158e+00	1.948882e+00	1.959883e+00	1.972293e+00	1.983813e+00	1.994298e+00	1.999373e+00	1.996771e+00	1.992552e+00	1.987209e+00	1.970913e+00	1.867644e+00	1.342596e+00	1.011148e+00	1.000164e+00	1.000002e+00	1.000000e+00	1.000000e+00	1.000000e+00	1.000000e+00	1.000000e+00	1.000000e+00	1.000000e+00	1.000000e+00	1.000000e+00	1.000000e+00	1.000000e+00	1.000000e+00	1.000000e+00	1.000000e+00	1.000000e+00	1.000000e+00	1.000000e+00	1.000000e+00	4.000000e+00	4.000000e+00	4.000000e+00	4.000000e+00	4.000000e+00	4.000000e+00	4.000000e+00	4.000000e+00	4.000000e+00	4.000000e+00	4.000000e+00	4.000000e+00	3.999999e+00	3.999995e+00	3.999979e+00	3.999896e+00	3.999384e+00	3.995305e+00	3.959052e+00	3.875042e+00	3.784706e+00	3.689598e+00	3.592787e+00	3.493872e+00	3.395348e+00	3.299003e+00	3.204873e+00	3.113145e+00	3.023720e+00	2.936417e+00	2.851069e+00	2.767548e+00	2.685761e+00	2.605631e+00	2.527091e+00	2.450081e+00	2.374552e+00	2.300469e+00	2.227783e+00	2.156429e+00	2.086331e+00	2.017414e+00	1.949591e+00	1.882776e+00	1.816051e+00	1.758388e+00	1.732643e+00	1.722431e+00	1.718704e+00	1.738103e+00	1.764599e+00	1.782986e+00	1.794092e+00	1.806579e+00	1.818219e+00	1.828971e+00	1.839425e+00	1.849074e+00	1.858041e+00	1.866417e+00	1.874886e+00	1.883318e+00	1.891596e+00	1.899903e+00	1.907969e+00	1.915106e+00	1.922449e+00	1.929578e+00	1.936716e+00	1.943753e+00	1.950286e+00	1.956337e+00	1.963508e+00	1.971970e+00	1.977806e+00	1.981141e+00	1.982901e+00	1.983217e+00	1.975248e+00	1.871634e+00	1.319672e+00	1.008873e+00	1.000100e+00	1.000001e+00	1.000000e+00	1.000000e+00	1.000000e+00	1.000000e+00	1.000000e+00	1.000000e+00	1.000000e+00	1.000000e+00	1.000000e+00	1.000000e+00	1.000000e+00	1.000000e+00	1.000000e+00	1.000000e+00	1.000000e+00	1.000000e+00	1.000000e+00	1.000000e+00	4.000000e+00	4.000000e+00	4.000000e+00	4.000000e+00	4.000000e+00	4.000000e+00	4.000000e+00	4.000000e+00	4.000000e+00	4.000000e+00	4.000000e+00	4.000000e+00	4.000000e+00	3.999998e+00	3.999991e+00	3.999943e+00	3.999549e+00	3.995560e+00	3.955330e+00	3.863528e+00	3.768895e+00	3.674134e+00	3.578534e+00	3.483327e+00	3.386918e+00	3.291709e+00	3.198901e+00	3.108379e+00	3.019953e+00	2.933454e+00	2.848766e+00	2.765812e+00	2.684510e+00	2.604790e+00	2.526616e+00	2.449958e+00	2.374768e+00	2.300980e+00	2.228526e+00	2.157353e+00	2.087426e+00	2.018691e+00	1.951020e+00	1.884415e+00	1.817582e+00	1.761590e+00	1.736956e+00	1.727226e+00	1.724364e+00	1.744807e+00	1.770674e+00	1.788356e+00	1.799746e+00	1.812140e+00	1.823426e+00	1.834264e+00	1.845127e+00	1.855402e+00	1.864798e+00	1.873276e+00	1.881661e+00	1.889995e+00	1.898334e+00	1.906704e+00	1.914747e+00	1.921854e+00	1.929247e+00	1.936302e+00	1.942989e+00	1.948999e+00	1.952832e+00	1.956016e+00	1.957311e+00	1.958730e+00	1.963136e+00	1.968318e+00	1.975558e+00	1.983033e+00	1.981925e+00	1.871155e+00	1.299424e+00	1.007589e+00	1.000079e+00	1.000001e+00	1.000000e+00	1.000000e+00	1.000000e+00	1.000000e+00	1.000000e+00	1.000000e+00	1.000000e+00	1.000000e+00	1.000000e+00	1.000000e+00	1.000000e+00	1.000000e+00	1.000000e+00	1.000000e+00	1.000000e+00	1.000000e+00	1.000000e+00	1.000000e+00	4.000000e+00	4.000000e+00	4.000000e+00	4.000000e+00	4.000000e+00	4.000000e+00	4.000000e+00	4.000000e+00	4.000000e+00	4.000000e+00	4.000000e+00	4.000000e+00	4.000000e+00	3.999999e+00	3.999995e+00	3.999956e+00	3.999540e+00	3.994796e+00	3.947243e+00	3.848116e+00	3.748809e+00	3.653020e+00	3.559025e+00	3.465451e+00	3.372586e+00	3.279166e+00	3.187561e+00	3.098046e+00	3.010486e+00	2.924717e+00	2.840660e+00	2.758256e+00	2.677437e+00	2.598136e+00	2.520326e+00	2.444004e+00	2.369136e+00	2.295653e+00	2.223480e+00	2.152569e+00	2.082891e+00	2.014431e+00	1.946983e+00	1.880719e+00	1.813797e+00	1.760345e+00	1.737538e+00	1.728658e+00	1.727354e+00	1.749245e+00	1.774331e+00	1.790873e+00	1.803045e+00	1.815881e+00	1.827341e+00	1.838541e+00	1.850264e+00	1.861410e+00	1.871212e+00	1.879473e+00	1.887346e+00	1.895088e+00	1.903049e+00	1.911229e+00	1.919048e+00	1.926166e+00	1.933152e+00	1.939992e+00	1.946242e+00	1.949553e+00	1.951486e+00	1.950441e+00	1.949092e+00	1.948374e+00	1.951832e+00	1.959698e+00	1.973290e+00	1.986094e+00	1.985674e+00	1.861594e+00	1.270020e+00	1.006184e+00	1.000059e+00	1.000000e+00	1.000000e+00	1.000000e+00	1.000000e+00	1.000000e+00	1.000000e+00	1.000000e+00	1.000000e+00	1.000000e+00	1.000000e+00	1.000000e+00	1.000000e+00	1.000000e+00	1.000000e+00	1.000000e+00	1.000000e+00	1.000000e+00	1.000000e+00	1.000000e+00	4.000000e+00	4.000000e+00	4.000000e+00	4.000000e+00	4.000000e+00	4.000000e+00	4.000000e+00	4.000000e+00	4.000000e+00	4.000000e+00	4.000000e+00	4.000000e+00	4.000000e+00	3.999999e+00	3.999995e+00	3.999944e+00	3.999359e+00	3.992687e+00	3.931534e+00	3.828688e+00	3.725726e+00	3.627190e+00	3.533796e+00	3.442397e+00	3.352657e+00	3.262985e+00	3.173209e+00	3.084799e+00	2.998180e+00	2.913273e+00	2.830004e+00	2.748311e+00	2.668133e+00	2.589409e+00	2.512113e+00	2.436252e+00	2.361810e+00	2.288733e+00	2.216946e+00	2.146401e+00	2.077058e+00	2.008955e+00	1.941804e+00	1.875870e+00	1.809173e+00	1.758962e+00	1.738252e+00	1.730220e+00	1.731959e+00	1.755134e+00	1.778648e+00	1.793913e+00	1.807907e+00	1.822543e+00	1.835988e+00	1.848413e+00	1.860131e+00	1.871053e+00	1.880800e+00	1.888755e+00	1.896017e+00	1.902907e+00	1.909990e+00	1.916992e+00	1.923248e+00	1.929113e+00	1.934910e+00	1.940521e+00	1.945433e+00	1.947695e+00	1.946895e+00	1.945306e+00	1.945759e+00	1.946015e+00	1.949248e+00	1.959375e+00	1.974422e+00	1.988487e+00	1.986874e+00	1.842531e+00	1.232745e+00	1.004809e+00	1.000043e+00	1.000000e+00	1.000000e+00	1.000000e+00	1.000000e+00	1.000000e+00	1.000000e+00	1.000000e+00	1.000000e+00	1.000000e+00	1.000000e+00	1.000000e+00	1.000000e+00	1.000000e+00	1.000000e+00	1.000000e+00	1.000000e+00	1.000000e+00	1.000000e+00	1.000000e+00	4.000000e+00	4.000000e+00	4.000000e+00	4.000000e+00	4.000000e+00	4.000000e+00	4.000000e+00	4.000000e+00	4.000000e+00	4.000000e+00	4.000000e+00	4.000000e+00	4.000000e+00	3.999999e+00	3.999992e+00	3.999910e+00	3.998934e+00	3.986852e+00	3.907319e+00	3.803098e+00	3.698681e+00	3.597770e+00	3.503795e+00	3.415213e+00	3.327986e+00	3.242340e+00	3.155521e+00	3.068729e+00	2.983122e+00	2.899128e+00	2.816736e+00	2.735869e+00	2.656476e+00	2.578485e+00	2.501863e+00	2.426608e+00	2.352710e+00	2.280139e+00	2.208832e+00	2.138753e+00	2.069840e+00	2.002165e+00	1.935413e+00	1.869753e+00	1.803662e+00	1.757460e+00	1.738966e+00	1.731758e+00	1.737309e+00	1.761462e+00	1.783325e+00	1.798198e+00	1.814862e+00	1.831451e+00	1.845693e+00	1.858270e+00	1.870359e+00	1.881030e+00	1.890079e+00	1.897530e+00	1.904059e+00	1.909643e+00	1.914864e+00	1.919744e+00	1.924683e+00	1.929144e+00	1.932913e+00	1.936019e+00	1.939295e+00	1.940859e+00	1.940810e+00	1.942905e+00	1.945333e+00	1.947894e+00	1.953649e+00	1.964120e+00	1.977538e+00	1.989470e+00	1.984907e+00	1.809127e+00	1.193456e+00	1.003505e+00	1.000030e+00	1.000000e+00	1.000000e+00	1.000000e+00	1.000000e+00	1.000000e+00	1.000000e+00	1.000000e+00	1.000000e+00	1.000000e+00	1.000000e+00	1.000000e+00	1.000000e+00	1.000000e+00	1.000000e+00	1.000000e+00	1.000000e+00	1.000000e+00	1.000000e+00	1.000000e+00	4.000000e+00	4.000000e+00	4.000000e+00	4.000000e+00	4.000000e+00	4.000000e+00	4.000000e+00	4.000000e+00	4.000000e+00	4.000000e+00	4.000000e+00	4.000000e+00	4.000000e+00	3.999999e+00	3.999986e+00	3.999825e+00	3.997847e+00	3.972715e+00	3.876628e+00	3.770181e+00	3.665565e+00	3.565225e+00	3.471782e+00	3.384255e+00	3.300128e+00	3.216485e+00	3.133726e+00	3.049453e+00	2.965349e+00	2.882383e+00	2.800912e+00	2.720936e+00	2.642416e+00	2.565273e+00	2.489455e+00	2.414940e+00	2.341711e+00	2.269754e+00	2.199024e+00	2.129512e+00	2.061143e+00	1.993973e+00	1.927762e+00	1.862372e+00	1.797280e+00	1.755849e+00	1.739771e+00	1.733483e+00	1.743955e+00	1.769515e+00	1.789972e+00	1.805102e+00	1.822491e+00	1.838842e+00	1.852744e+00	1.864901e+00	1.876412e+00	1.887806e+00	1.898025e+00	1.905555e+00	1.911662e+00	1.916444e+00	1.919553e+00	1.922776e+00	1.925692e+00	1.927777e+00	1.929845e+00	1.931844e+00	1.933202e+00	1.937017e+00	1.939833e+00	1.944232e+00	1.949341e+00	1.956348e+00	1.964499e+00	1.973500e+00	1.983362e+00	1.990697e+00	1.981294e+00	1.759894e+00	1.153970e+00	1.002294e+00	1.000019e+00	1.000000e+00	1.000000e+00	1.000000e+00	1.000000e+00	1.000000e+00	1.000000e+00	1.000000e+00	1.000000e+00	1.000000e+00	1.000000e+00	1.000000e+00	1.000000e+00	1.000000e+00	1.000000e+00	1.000000e+00	1.000000e+00	1.000000e+00	1.000000e+00	1.000000e+00	4.000000e+00	4.000000e+00	4.000000e+00	4.000000e+00	4.000000e+00	4.000000e+00	4.000000e+00	4.000000e+00	4.000000e+00	4.000000e+00	4.000000e+00	4.000000e+00	4.000000e+00	3.999997e+00	3.999968e+00	3.999604e+00	3.995061e+00	3.945471e+00	3.838285e+00	3.729533e+00	3.626718e+00	3.529853e+00	3.438406e+00	3.351673e+00	3.268674e+00	3.187290e+00	3.106603e+00	3.026261e+00	2.944542e+00	2.863061e+00	2.782634e+00	2.703597e+00	2.625998e+00	2.549769e+00	2.474848e+00	2.401183e+00	2.328736e+00	2.257502e+00	2.187452e+00	2.118598e+00	2.050888e+00	1.984295e+00	1.918772e+00	1.853661e+00	1.790099e+00	1.753994e+00	1.740648e+00	1.735984e+00	1.752374e+00	1.779435e+00	1.798263e+00	1.811160e+00	1.827071e+00	1.842514e+00	1.855903e+00	1.867544e+00	1.878326e+00	1.888665e+00	1.898534e+00	1.908918e+00	1.918679e+00	1.925023e+00	1.928239e+00	1.930839e+00	1.932217e+00	1.932737e+00	1.934100e+00	1.935239e+00	1.936186e+00	1.941709e+00	1.946210e+00	1.953290e+00	1.960678e+00	1.969267e+00	1.978512e+00	1.986219e+00	1.991853e+00	1.992544e+00	1.969472e+00	1.697057e+00	1.117508e+00	1.001483e+00	1.000013e+00	1.000000e+00	1.000000e+00	1.000000e+00	1.000000e+00	1.000000e+00	1.000000e+00	1.000000e+00	1.000000e+00	1.000000e+00	1.000000e+00	1.000000e+00	1.000000e+00	1.000000e+00	1.000000e+00	1.000000e+00	1.000000e+00	1.000000e+00	1.000000e+00	1.000000e+00	4.000000e+00	4.000000e+00	4.000000e+00	4.000000e+00	4.000000e+00	4.000000e+00	4.000000e+00	4.000000e+00	4.000000e+00	4.000000e+00	4.000000e+00	4.000000e+00	3.999999e+00	3.999994e+00	3.999919e+00	3.998984e+00	3.986768e+00	3.900098e+00	3.788863e+00	3.682220e+00	3.584097e+00	3.491876e+00	3.403383e+00	3.317666e+00	3.235019e+00	3.155103e+00	3.075977e+00	2.997966e+00	2.919963e+00	2.840809e+00	2.761920e+00	2.683991e+00	2.607378e+00	2.532097e+00	2.458117e+00	2.385368e+00	2.313788e+00	2.243367e+00	2.174083e+00	2.105966e+00	2.039019e+00	1.973089e+00	1.908409e+00	1.843416e+00	1.782516e+00	1.752074e+00	1.741806e+00	1.740177e+00	1.762916e+00	1.790223e+00	1.806019e+00	1.815633e+00	1.828757e+00	1.842474e+00	1.855209e+00	1.866556e+00	1.876809e+00	1.886274e+00	1.895124e+00	1.904949e+00	1.916579e+00	1.929137e+00	1.938731e+00	1.943111e+00	1.944538e+00	1.944951e+00	1.945648e+00	1.946185e+00	1.947173e+00	1.951333e+00	1.957059e+00	1.964910e+00	1.973377e+00	1.982869e+00	1.990978e+00	1.992110e+00	1.989807e+00	1.983501e+00	1.950113e+00	1.632329e+00	1.084053e+00	1.000861e+00	1.000009e+00	1.000000e+00	1.000000e+00	1.000000e+00	1.000000e+00	1.000000e+00	1.000000e+00	1.000000e+00	1.000000e+00	1.000000e+00	1.000000e+00	1.000000e+00	1.000000e+00	1.000000e+00	1.000000e+00	1.000000e+00	1.000000e+00	1.000000e+00	1.000000e+00	1.000000e+00	4.000000e+00	4.000000e+00	4.000000e+00	4.000000e+00	4.000000e+00	4.000000e+00	4.000000e+00	4.000000e+00	4.000000e+00	4.000000e+00	4.000000e+00	4.000000e+00	3.999998e+00	3.999981e+00	3.999759e+00	3.996798e+00	3.958020e+00	3.843741e+00	3.731400e+00	3.630456e+00	3.538650e+00	3.451208e+00	3.365914e+00	3.281976e+00	3.199803e+00	3.120070e+00	3.042658e+00	2.966075e+00	2.890460e+00	2.814963e+00	2.738431e+00	2.662128e+00	2.586695e+00	2.512424e+00	2.439405e+00	2.367598e+00	2.296938e+00	2.227399e+00	2.158964e+00	2.091660e+00	2.025565e+00	1.960408e+00	1.896634e+00	1.831790e+00	1.775541e+00	1.750861e+00	1.743257e+00	1.747389e+00	1.773385e+00	1.799361e+00	1.812224e+00	1.818933e+00	1.828822e+00	1.840057e+00	1.851706e+00	1.862778e+00	1.872670e+00	1.881453e+00	1.889445e+00	1.897467e+00	1.908162e+00	1.919882e+00	1.935577e+00	1.949627e+00	1.957568e+00	1.958881e+00	1.959169e+00	1.959223e+00	1.962290e+00	1.966363e+00	1.971194e+00	1.976453e+00	1.984483e+00	1.991108e+00	1.990009e+00	1.986203e+00	1.982936e+00	1.974978e+00	1.932278e+00	1.564502e+00	1.050920e+00	1.000486e+00	1.000005e+00	1.000000e+00	1.000000e+00	1.000000e+00	1.000000e+00	1.000000e+00	1.000000e+00	1.000000e+00	1.000000e+00	1.000000e+00	1.000000e+00	1.000000e+00	1.000000e+00	1.000000e+00	1.000000e+00	1.000000e+00	1.000000e+00	1.000000e+00	1.000000e+00	1.000000e+00	3.999999e+00	3.999999e+00	4.000000e+00	4.000000e+00	4.000000e+00	4.000000e+00	4.000000e+00	4.000000e+00	4.000000e+00	4.000000e+00	4.000000e+00	3.999999e+00	3.999994e+00	3.999929e+00	3.999066e+00	3.987262e+00	3.893402e+00	3.776010e+00	3.670097e+00	3.576545e+00	3.490551e+00	3.407478e+00	3.325433e+00	3.243899e+00	3.163192e+00	3.084059e+00	3.007047e+00	2.931764e+00	2.857546e+00	2.784209e+00	2.711221e+00	2.637463e+00	2.563805e+00	2.490820e+00	2.418879e+00	2.348059e+00	2.278356e+00	2.209744e+00	2.142217e+00	2.075800e+00	2.010615e+00	1.946405e+00	1.883476e+00	1.819437e+00	1.769750e+00	1.751306e+00	1.745678e+00	1.756059e+00	1.781865e+00	1.805922e+00	1.816652e+00	1.821381e+00	1.828703e+00	1.837115e+00	1.846808e+00	1.857124e+00	1.866677e+00	1.874937e+00	1.882215e+00	1.888484e+00	1.896530e+00	1.906949e+00	1.919247e+00	1.936403e+00	1.956245e+00	1.968182e+00	1.972962e+00	1.976911e+00	1.980791e+00	1.983388e+00	1.984114e+00	1.985356e+00	1.988325e+00	1.986598e+00	1.982877e+00	1.977914e+00	1.975543e+00	1.968585e+00	1.914161e+00	1.485380e+00	1.022826e+00	1.000279e+00	1.000003e+00	1.000000e+00	1.000000e+00	1.000000e+00	1.000000e+00	1.000000e+00	1.000000e+00	1.000000e+00	1.000000e+00	1.000000e+00	1.000000e+00	1.000000e+00	1.000000e+00	1.000000e+00	1.000000e+00	1.000000e+00	1.000000e+00	1.000000e+00	1.000000e+00	1.000000e+00	3.999994e+00	3.999997e+00	3.999999e+00	4.000000e+00	4.000000e+00	4.000000e+00	4.000000e+00	4.000000e+00	4.000000e+00	3.999999e+00	3.999998e+00	3.999994e+00	3.999960e+00	3.999592e+00	3.994735e+00	3.935391e+00	3.815260e+00	3.704137e+00	3.607421e+00	3.520831e+00	3.439749e+00	3.360517e+00	3.281726e+00	3.202978e+00	3.124502e+00	3.046756e+00	2.970226e+00	2.895718e+00	2.822651e+00	2.750737e+00	2.679672e+00	2.609047e+00	2.537994e+00	2.466965e+00	2.396482e+00	2.326839e+00	2.258187e+00	2.190564e+00	2.124000e+00	2.058542e+00	1.994304e+00	1.931262e+00	1.869109e+00	1.807669e+00	1.766074e+00	1.752981e+00	1.749775e+00	1.763884e+00	1.787934e+00	1.809981e+00	1.819860e+00	1.823641e+00	1.829286e+00	1.835610e+00	1.842744e+00	1.851069e+00	1.859942e+00	1.868305e+00	1.876268e+00	1.882910e+00	1.888270e+00	1.893668e+00	1.902918e+00	1.916254e+00	1.935811e+00	1.961770e+00	1.985245e+00	1.992893e+00	1.996895e+00	1.995964e+00	1.992276e+00	1.989938e+00	1.985675e+00	1.979791e+00	1.973216e+00	1.970517e+00	1.970000e+00	1.965264e+00	1.891648e+00	1.382788e+00	1.011819e+00	1.000136e+00	1.000001e+00	1.000000e+00	1.000000e+00	1.000000e+00	1.000000e+00	1.000000e+00	1.000000e+00	1.000000e+00	1.000000e+00	1.000000e+00	1.000000e+00	1.000000e+00	1.000000e+00	1.000000e+00	1.000000e+00	1.000000e+00	1.000000e+00	1.000000e+00	1.000000e+00	1.000000e+00	3.999972e+00	3.999989e+00	3.999995e+00	3.999998e+00	3.999999e+00	3.999999e+00	3.999999e+00	3.999999e+00	3.999997e+00	3.999994e+00	3.999981e+00	3.999929e+00	3.999592e+00	3.996336e+00	3.955804e+00	3.842006e+00	3.730701e+00	3.631935e+00	3.543847e+00	3.463154e+00	3.386379e+00	3.310646e+00	3.235033e+00	3.159196e+00	3.083411e+00	3.007850e+00	2.932682e+00	2.858779e+00	2.786372e+00	2.715488e+00	2.645755e+00	2.576934e+00	2.508598e+00	2.440129e+00	2.371728e+00	2.303706e+00	2.236379e+00	2.169912e+00	2.104417e+00	2.040023e+00	1.976795e+00	1.915109e+00	1.853922e+00	1.796819e+00	1.765072e+00	1.755977e+00	1.754696e+00	1.770404e+00	1.792146e+00	1.812399e+00	1.822529e+00	1.826301e+00	1.831297e+00	1.837052e+00	1.844333e+00	1.852542e+00	1.860832e+00	1.869214e+00	1.878032e+00	1.885974e+00	1.891832e+00	1.895360e+00	1.898245e+00	1.903511e+00	1.914054e+00	1.933419e+00	1.959309e+00	1.984398e+00	1.997189e+00	2.002549e+00	1.997528e+00	1.990664e+00	1.983168e+00	1.974576e+00	1.966719e+00	1.966533e+00	1.970089e+00	1.968294e+00	1.854698e+00	1.270218e+00	1.006030e+00	1.000056e+00	1.000000e+00	1.000000e+00	1.000000e+00	1.000000e+00	1.000000e+00	1.000000e+00	1.000000e+00	1.000000e+00	1.000000e+00	1.000000e+00	1.000000e+00	1.000000e+00	1.000000e+00	1.000000e+00	1.000000e+00	1.000000e+00	1.000000e+00	1.000000e+00	1.000000e+00	1.000000e+00	3.999880e+00	3.999952e+00	3.999979e+00	3.999991e+00	3.999995e+00	3.999995e+00	3.999992e+00	3.999986e+00	3.999968e+00	3.999919e+00	3.999759e+00	3.999066e+00	3.994735e+00	3.955804e+00	3.851834e+00	3.745979e+00	3.648507e+00	3.559969e+00	3.479290e+00	3.403811e+00	3.330884e+00	3.258440e+00	3.185861e+00	3.112911e+00	3.039969e+00	2.966728e+00	2.893875e+00	2.821233e+00	2.749678e+00	2.679393e+00	2.610398e+00	2.542716e+00	2.476047e+00	2.409926e+00	2.343954e+00	2.278074e+00	2.212541e+00	2.147577e+00	2.083388e+00	2.020237e+00	1.958205e+00	1.897940e+00	1.838314e+00	1.788140e+00	1.765802e+00	1.758972e+00	1.759763e+00	1.775865e+00	1.795394e+00	1.814096e+00	1.825567e+00	1.831240e+00	1.838702e+00	1.846656e+00	1.854410e+00	1.862228e+00	1.869571e+00	1.876336e+00	1.883327e+00	1.890797e+00	1.897656e+00	1.901921e+00	1.904038e+00	1.906404e+00	1.908902e+00	1.914538e+00	1.924778e+00	1.944809e+00	1.968871e+00	1.985465e+00	1.992378e+00	1.990112e+00	1.982005e+00	1.972746e+00	1.966599e+00	1.971795e+00	1.981032e+00	1.975093e+00	1.781991e+00	1.166236e+00	1.002521e+00	1.000019e+00	1.000000e+00	1.000000e+00	1.000000e+00	1.000000e+00	1.000000e+00	1.000000e+00	1.000000e+00	1.000000e+00	1.000000e+00	1.000000e+00	1.000000e+00	1.000000e+00	1.000000e+00	1.000000e+00	1.000000e+00	1.000000e+00	1.000000e+00	1.000000e+00	1.000000e+00	1.000000e+00	3.999479e+00	3.999783e+00	3.999896e+00	3.999943