# vtk DataFile Version 3.0
vtk output
ASCII
DATASET STRUCTURED_GRID
DIMENSIONS 102 102 1
POINTS 10404 double
0.000000e+00	0.000000e+00	0.0	1.980198e+00	0.000000e+00	0.0	3.960396e+00	0.000000e+00	0.0	5.940594e+00	0.000000e+00	0.0	7.920792e+00	0.000000e+00	0.0	9.900990e+00	0.000000e+00	0.0	1.188119e+01	0.000000e+00	0.0	1.386139e+01	0.000000e+00	0.0	1.584158e+01	0.000000e+00	0.0	1.782178e+01	0.000000e+00	0.0	1.980198e+01	0.000000e+00	0.0	2.178218e+01	0.000000e+00	0.0	2.376238e+01	0.000000e+00	0.0	2.574257e+01	0.000000e+00	0.0	2.772277e+01	0.000000e+00	0.0	2.970297e+01	0.000000e+00	0.0	3.168317e+01	0.000000e+00	0.0	3.366337e+01	0.000000e+00	0.0	3.564356e+01	0.000000e+00	0.0	3.762376e+01	0.000000e+00	0.0	3.960396e+01	0.000000e+00	0.0	4.158416e+01	0.000000e+00	0.0	4.356436e+01	0.000000e+00	0.0	4.554455e+01	0.000000e+00	0.0	4.752475e+01	0.000000e+00	0.0	4.950495e+01	0.000000e+00	0.0	5.148515e+01	0.000000e+00	0.0	5.346535e+01	0.000000e+00	0.0	5.544554e+01	0.000000e+00	0.0	5.742574e+01	0.000000e+00	0.0	5.940594e+01	0.000000e+00	0.0	6.138614e+01	0.000000e+00	0.0	6.336634e+01	0.000000e+00	0.0	6.534653e+01	0.000000e+00	0.0	6.732673e+01	0.000000e+00	0.0	6.930693e+01	0.000000e+00	0.0	7.128713e+01	0.000000e+00	0.0	7.326733e+01	0.000000e+00	0.0	7.524752e+01	0.000000e+00	0.0	7.722772e+01	0.000000e+00	0.0	7.920792e+01	0.000000e+00	0.0	8.118812e+01	0.000000e+00	0.0	8.316832e+01	0.000000e+00	0.0	8.514851e+01	0.000000e+00	0.0	8.712871e+01	0.000000e+00	0.0	8.910891e+01	0.000000e+00	0.0	9.108911e+01	0.000000e+00	0.0	9.306931e+01	0.000000e+00	0.0	9.504950e+01	0.000000e+00	0.0	9.702970e+01	0.000000e+00	0.0	9.900990e+01	0.000000e+00	0.0	1.009901e+02	0.000000e+00	0.0	1.029703e+02	0.000000e+00	0.0	1.049505e+02	0.000000e+00	0.0	1.069307e+02	0.000000e+00	0.0	1.089109e+02	0.000000e+00	0.0	1.108911e+02	0.000000e+00	0.0	1.128713e+02	0.000000e+00	0.0	1.148515e+02	0.000000e+00	0.0	1.168317e+02	0.000000e+00	0.0	1.188119e+02	0.000000e+00	0.0	1.207921e+02	0.000000e+00	0.0	1.227723e+02	0.000000e+00	0.0	1.247525e+02	0.000000e+00	0.0	1.267327e+02	0.000000e+00	0.0	1.287129e+02	0.000000e+00	0.0	1.306931e+02	0.000000e+00	0.0	1.326733e+02	0.000000e+00	0.0	1.346535e+02	0.000000e+00	0.0	1.366337e+02	0.000000e+00	0.0	1.386139e+02	0.000000e+00	0.0	1.405941e+02	0.000000e+00	0.0	1.425743e+02	0.000000e+00	0.0	1.445545e+02	0.000000e+00	0.0	1.465347e+02	0.000000e+00	0.0	1.485149e+02	0.000000e+00	0.0	1.504950e+02	0.000000e+00	0.0	1.524752e+02	0.000000e+00	0.0	1.544554e+02	0.000000e+00	0.0	1.564356e+02	0.000000e+00	0.0	1.584158e+02	0.000000e+00	0.0	1.603960e+02	0.000000e+00	0.0	1.623762e+02	0.000000e+00	0.0	1.643564e+02	0.000000e+00	0.0	1.663366e+02	0.000000e+00	0.0	1.683168e+02	0.000000e+00	0.0	1.702970e+02	0.000000e+00	0.0	1.722772e+02	0.000000e+00	0.0	1.742574e+02	0.000000e+00	0.0	1.762376e+02	0.000000e+00	0.0	1.782178e+02	0.000000e+00	0.0	1.801980e+02	0.000000e+00	0.0	1.821782e+02	0.000000e+00	0.0	1.841584e+02	0.000000e+00	0.0	1.861386e+02	0.000000e+00	0.0	1.881188e+02	0.000000e+00	0.0	1.900990e+02	0.000000e+00	0.0	1.920792e+02	0.000000e+00	0.0	1.940594e+02	0.000000e+00	0.0	1.960396e+02	0.000000e+00	0.0	1.980198e+02	0.000000e+00	0.0	2.000000e+02	0.000000e+00	0.0	0.000000e+00	1.980198e+00	0.0	1.980198e+00	1.980198e+00	0.0	3.960396e+00	1.980198e+00	0.0	5.940594e+00	1.980198e+00	0.0	7.920792e+00	1.980198e+00	0.0	9.900990e+00	1.980198e+00	0.0	1.188119e+01	1.980198e+00	0.0	1.386139e+01	1.980198e+00	0.0	1.584158e+01	1.980198e+00	0.0	1.782178e+01	1.980198e+00	0.0	1.980198e+01	1.980198e+00	0.0	2.178218e+01	1.980198e+00	0.0	2.376238e+01	1.980198e+00	0.0	2.574257e+01	1.980198e+00	0.0	2.772277e+01	1.980198e+00	0.0	2.970297e+01	1.980198e+00	0.0	3.168317e+01	1.980198e+00	0.0	3.366337e+01	1.980198e+00	0.0	3.564356e+01	1.980198e+00	0.0	3.762376e+01	1.980198e+00	0.0	3.960396e+01	1.980198e+00	0.0	4.158416e+01	1.980198e+00	0.0	4.356436e+01	1.980198e+00	0.0	4.554455e+01	1.980198e+00	0.0	4.752475e+01	1.980198e+00	0.0	4.950495e+01	1.980198e+00	0.0	5.148515e+01	1.980198e+00	0.0	5.346535e+01	1.980198e+00	0.0	5.544554e+01	1.980198e+00	0.0	5.742574e+01	1.980198e+00	0.0	5.940594e+01	1.980198e+00	0.0	6.138614e+01	1.980198e+00	0.0	6.336634e+01	1.980198e+00	0.0	6.534653e+01	1.980198e+00	0.0	6.732673e+01	1.980198e+00	0.0	6.930693e+01	1.980198e+00	0.0	7.128713e+01	1.980198e+00	0.0	7.326733e+01	1.980198e+00	0.0	7.524752e+01	1.980198e+00	0.0	7.722772e+01	1.980198e+00	0.0	7.920792e+01	1.980198e+00	0.0	8.118812e+01	1.980198e+00	0.0	8.316832e+01	1.980198e+00	0.0	8.514851e+01	1.980198e+00	0.0	8.712871e+01	1.980198e+00	0.0	8.910891e+01	1.980198e+00	0.0	9.108911e+01	1.980198e+00	0.0	9.306931e+01	1.980198e+00	0.0	9.504950e+01	1.980198e+00	0.0	9.702970e+01	1.980198e+00	0.0	9.900990e+01	1.980198e+00	0.0	1.009901e+02	1.980198e+00	0.0	1.029703e+02	1.980198e+00	0.0	1.049505e+02	1.980198e+00	0.0	1.069307e+02	1.980198e+00	0.0	1.089109e+02	1.980198e+00	0.0	1.108911e+02	1.980198e+00	0.0	1.128713e+02	1.980198e+00	0.0	1.148515e+02	1.980198e+00	0.0	1.168317e+02	1.980198e+00	0.0	1.188119e+02	1.980198e+00	0.0	1.207921e+02	1.980198e+00	0.0	1.227723e+02	1.980198e+00	0.0	1.247525e+02	1.980198e+00	0.0	1.267327e+02	1.980198e+00	0.0	1.287129e+02	1.980198e+00	0.0	1.306931e+02	1.980198e+00	0.0	1.326733e+02	1.980198e+00	0.0	1.346535e+02	1.980198e+00	0.0	1.366337e+02	1.980198e+00	0.0	1.386139e+02	1.980198e+00	0.0	1.405941e+02	1.980198e+00	0.0	1.425743e+02	1.980198e+00	0.0	1.445545e+02	1.980198e+00	0.0	1.465347e+02	1.980198e+00	0.0	1.485149e+02	1.980198e+00	0.0	1.504950e+02	1.980198e+00	0.0	1.524752e+02	1.980198e+00	0.0	1.544554e+02	1.980198e+00	0.0	1.564356e+02	1.980198e+00	0.0	1.584158e+02	1.980198e+00	0.0	1.603960e+02	1.980198e+00	0.0	1.623762e+02	1.980198e+00	0.0	1.643564e+02	1.980198e+00	0.0	1.663366e+02	1.980198e+00	0.0	1.683168e+02	1.980198e+00	0.0	1.702970e+02	1.980198e+00	0.0	1.722772e+02	1.980198e+00	0.0	1.742574e+02	1.980198e+00	0.0	1.762376e+02	1.980198e+00	0.0	1.782178e+02	1.980198e+00	0.0	1.801980e+02	1.980198e+00	0.0	1.821782e+02	1.980198e+00	0.0	1.841584e+02	1.980198e+00	0.0	1.861386e+02	1.980198e+00	0.0	1.881188e+02	1.980198e+00	0.0	1.900990e+02	1.980198e+00	0.0	1.920792e+02	1.980198e+00	0.0	1.940594e+02	1.980198e+00	0.0	1.960396e+02	1.980198e+00	0.0	1.980198e+02	1.980198e+00	0.0	2.000000e+02	1.980198e+00	0.0	0.000000e+00	3.960396e+00	0.0	1.980198e+00	3.960396e+00	0.0	3.960396e+00	3.960396e+00	0.0	5.940594e+00	3.960396e+00	0.0	7.920792e+00	3.960396e+00	0.0	9.900990e+00	3.960396e+00	0.0	1.188119e+01	3.960396e+00	0.0	1.386139e+01	3.960396e+00	0.0	1.584158e+01	3.960396e+00	0.0	1.782178e+01	3.960396e+00	0.0	1.980198e+01	3.960396e+00	0.0	2.178218e+01	3.960396e+00	0.0	2.376238e+01	3.960396e+00	0.0	2.574257e+01	3.960396e+00	0.0	2.772277e+01	3.960396e+00	0.0	2.970297e+01	3.960396e+00	0.0	3.168317e+01	3.960396e+00	0.0	3.366337e+01	3.960396e+00	0.0	3.564356e+01	3.960396e+00	0.0	3.762376e+01	3.960396e+00	0.0	3.960396e+01	3.960396e+00	0.0	4.158416e+01	3.960396e+00	0.0	4.356436e+01	3.960396e+00	0.0	4.554455e+01	3.960396e+00	0.0	4.752475e+01	3.960396e+00	0.0	4.950495e+01	3.960396e+00	0.0	5.148515e+01	3.960396e+00	0.0	5.346535e+01	3.960396e+00	0.0	5.544554e+01	3.960396e+00	0.0	5.742574e+01	3.960396e+00	0.0	5.940594e+01	3.960396e+00	0.0	6.138614e+01	3.960396e+00	0.0	6.336634e+01	3.960396e+00	0.0	6.534653e+01	3.960396e+00	0.0	6.732673e+01	3.960396e+00	0.0	6.930693e+01	3.960396e+00	0.0	7.128713e+01	3.960396e+00	0.0	7.326733e+01	3.960396e+00	0.0	7.524752e+01	3.960396e+00	0.0	7.722772e+01	3.960396e+00	0.0	7.920792e+01	3.960396e+00	0.0	8.118812e+01	3.960396e+00	0.0	8.316832e+01	3.960396e+00	0.0	8.514851e+01	3.960396e+00	0.0	8.712871e+01	3.960396e+00	0.0	8.910891e+01	3.960396e+00	0.0	9.108911e+01	3.960396e+00	0.0	9.306931e+01	3.960396e+00	0.0	9.504950e+01	3.960396e+00	0.0	9.702970e+01	3.960396e+00	0.0	9.900990e+01	3.960396e+00	0.0	1.009901e+02	3.960396e+00	0.0	1.029703e+02	3.960396e+00	0.0	1.049505e+02	3.960396e+00	0.0	1.069307e+02	3.960396e+00	0.0	1.089109e+02	3.960396e+00	0.0	1.108911e+02	3.960396e+00	0.0	1.128713e+02	3.960396e+00	0.0	1.148515e+02	3.960396e+00	0.0	1.168317e+02	3.960396e+00	0.0	1.188119e+02	3.960396e+00	0.0	1.207921e+02	3.960396e+00	0.0	1.227723e+02	3.960396e+00	0.0	1.247525e+02	3.960396e+00	0.0	1.267327e+02	3.960396e+00	0.0	1.287129e+02	3.960396e+00	0.0	1.306931e+02	3.960396e+00	0.0	1.326733e+02	3.960396e+00	0.0	1.346535e+02	3.960396e+00	0.0	1.366337e+02	3.960396e+00	0.0	1.386139e+02	3.960396e+00	0.0	1.405941e+02	3.960396e+00	0.0	1.425743e+02	3.960396e+00	0.0	1.445545e+02	3.960396e+00	0.0	1.465347e+02	3.960396e+00	0.0	1.485149e+02	3.960396e+00	0.0	1.504950e+02	3.960396e+00	0.0	1.524752e+02	3.960396e+00	0.0	1.544554e+02	3.960396e+00	0.0	1.564356e+02	3.960396e+00	0.0	1.584158e+02	3.960396e+00	0.0	1.603960e+02	3.960396e+00	0.0	1.623762e+02	3.960396e+00	0.0	1.643564e+02	3.960396e+00	0.0	1.663366e+02	3.960396e+00	0.0	1.683168e+02	3.960396e+00	0.0	1.702970e+02	3.960396e+00	0.0	1.722772e+02	3.960396e+00	0.0	1.742574e+02	3.960396e+00	0.0	1.762376e+02	3.960396e+00	0.0	1.782178e+02	3.960396e+00	0.0	1.801980e+02	3.960396e+00	0.0	1.821782e+02	3.960396e+00	0.0	1.841584e+02	3.960396e+00	0.0	1.861386e+02	3.960396e+00	0.0	1.881188e+02	3.960396e+00	0.0	1.900990e+02	3.960396e+00	0.0	1.920792e+02	3.960396e+00	0.0	1.940594e+02	3.960396e+00	0.0	1.960396e+02	3.960396e+00	0.0	1.980198e+02	3.960396e+00	0.0	2.000000e+02	3.960396e+00	0.0	0.000000e+00	5.940594e+00	0.0	1.980198e+00	5.940594e+00	0.0	3.960396e+00	5.940594e+00	0.0	5.940594e+00	5.940594e+00	0.0	7.920792e+00	5.940594e+00	0.0	9.900990e+00	5.940594e+00	0.0	1.188119e+01	5.940594e+00	0.0	1.386139e+01	5.940594e+00	0.0	1.584158e+01	5.940594e+00	0.0	1.782178e+01	5.940594e+00	0.0	1.980198e+01	5.940594e+00	0.0	2.178218e+01	5.940594e+00	0.0	2.376238e+01	5.940594e+00	0.0	2.574257e+01	5.940594e+00	0.0	2.772277e+01	5.940594e+00	0.0	2.970297e+01	5.940594e+00	0.0	3.168317e+01	5.940594e+00	0.0	3.366337e+01	5.940594e+00	0.0	3.564356e+01	5.940594e+00	0.0	3.762376e+01	5.940594e+00	0.0	3.960396e+01	5.940594e+00	0.0	4.158416e+01	5.940594e+00	0.0	4.356436e+01	5.940594e+00	0.0	4.554455e+01	5.940594
[...]
POINT_DATA 10404

SCALARS Height double 1
LOOKUP_TABLE default
4.000000e+00	4.000000e+00	4.000000e+00	4.000000e+00	4.000000e+00	4.000000e+00	4.000000e+00	4.000000e+00	4.000000e+00	4.000000e+00	4.000000e+00	4.000000e+00	4.000000e+00	4.000000e+00	4.000000e+00	3.999999e+00	3.999998e+00	3.999989e+00	3.999954e+00	3.999802e+00	3.999145e+00	3.996287e+00	3.983974e+00	3.935831e+00	3.852551e+00	3.754006e+00	3.648808e+00	3.540631e+00	3.431871e+00	3.324102e+00	3.218140e+00	3.114486e+00	3.013120e+00	2.913958e+00	2.816912e+00	2.721909e+00	2.628874e+00	2.537760e+00	2.448473e+00	2.360952e+00	2.275133e+00	2.190915e+00	2.108207e+00	2.026898e+00	1.946863e+00	1.867928e+00	1.820022e+00	1.801041e+00	1.793481e+00	1.798088e+00	1.822789e+00	1.844374e+00	1.855192e+00	1.867922e+00	1.881597e+00	1.894300e+00	1.906527e+00	1.917702e+00	1.927738e+00	1.936386e+00	1.944502e+00	1.953123e+00	1.962370e+00	1.972104e+00	1.982417e+00	1.991184e+00	1.997232e+00	1.998773e+00	1.996962e+00	1.991264e+00	1.984511e+00	1.980973e+00	1.986220e+00	1.992039e+00	1.980260e+00	1.838526e+00	1.336523e+00	1.022799e+00	1.000662e+00	1.000016e+00	1.000000e+00	1.000000e+00	1.000000e+00	1.000000e+00	1.000000e+00	1.000000e+00	1.000000e+00	1.000000e+00	1.000000e+00	1.000000e+00	1.000000e+00	1.000000e+00	1.000000e+00	1.000000e+00	1.000000e+00	1.000000e+00	1.000000e+00	1.000000e+00	1.000000e+00	1.000000e+00	1.000000e+00	1.000000e+00	4.000000e+00	4.000000e+00	4.000000e+00	4.000000e+00	4.000000e+00	4.000000e+00	4.000000e+00	4.000000e+00	4.000000e+00	4.000000e+00	4.000000e+00	4.000000e+00	4.000000e+00	4.000000e+00	4.000000e+00	4.000000e+00	3.999999e+00	3.999996e+00	3.999981e+00	3.999919e+00	3.999634e+00	3.998209e+00	3.989686e+00	3.936345e+00	3.849707e+00	3.752161e+00	3.648557e+00	3.541463e+00	3.433420e+00	3.326484e+00	3.221432e+00	3.118371e+00	3.017593e+00	2.918956e+00	2.822373e+00	2.727764e+00	2.635051e+00	2.544207e+00	2.455121e+00	2.367802e+00	2.282173e+00	2.198116e+00	2.115545e+00	2.034327e+00	1.954358e+00	1.875609e+00	1.827934e+00	1.808925e+00	1.801275e+00	1.805222e+00	1.829883e+00	1.851404e+00	1.861778e+00	1.873349e+00	1.885693e+00	1.897548e+00	1.909608e+00	1.920876e+00	1.931080e+00	1.939954e+00	1.948378e+00	1.957293e+00	1.966225e+00	1.975216e+00	1.984826e+00	1.992533e+00	1.997716e+00	2.000613e+00	2.000644e+00	1.995468e+00	1.990220e+00	1.986265e+00	1.991734e+00	1.996702e+00	1.989679e+00	1.865127e+00	1.279275e+00	1.007084e+00	1.000086e+00	1.000001e+00	1.000000e+00	1.000000e+00	1.000000e+00	1.000000e+00	1.000000e+00	1.000000e+00	1.000000e+00	1.000000e+00	1.000000e+00	1.000000e+00	1.000000e+00	1.000000e+00	1.000000e+00	1.000000e+00	1.000000e+00	1.000000e+00	1.000000e+00	1.000000e+00	1.000000e+00	1.000000e+00	1.000000e+00	1.000000e+00	4.000000e+00	4.000000e+00	4.000000e+00	4.000000e+00	4.000000e+00	4.000000e+00	4.000000e+00	4.000000e+00	4.000000e+00	4.000000e+00	4.000000e+00	4.000000e+00	4.000000e+00	4.000000e+00	4.000000e+00	4.000000e+00	4.000000e+00	3.999998e+00	3.999992e+00	3.999964e+00	3.999817e+00	3.998867e+00	3.991231e+00	3.933211e+00	3.839376e+00	3.739733e+00	3.635172e+00	3.528735e+00	3.420506e+00	3.312948e+00	3.207583e+00	3.104457e+00	3.003539e+00	2.904858e+00	2.808279e+00	2.713676e+00	2.620971e+00	2.530129e+00	2.441191e+00	2.354025e+00	2.268513e+00	2.184574e+00	2.102110e+00	2.020954e+00	1.941136e+00	1.862772e+00	1.816926e+00	1.798603e+00	1.791169e+00	1.796807e+00	1.821268e+00	1.842220e+00	1.853575e+00	1.865155e+00	1.876249e+00	1.886073e+00	1.896219e+00	1.906529e+00	1.916468e+00	1.925395e+00	1.933896e+00	1.942398e+00	1.950477e+00	1.957843e+00	1.964263e+00	1.971251e+00	1.978224e+00	1.984326e+00	1.989585e+00	1.992154e+00	1.993869e+00	1.995264e+00	1.998188e+00	2.000520e+00	1.991933e+00	1.851745e+00	1.244348e+00	1.005263e+00	1.000048e+00	1.000000e+00	1.000000e+00	1.000000e+00	1.000000e+00	1.000000e+00	1.000000e+00	1.000000e+00	1.000000e+00	1.000000e+00	1.000000e+00	1.000000e+00	1.000000e+00	1.000000e+00	1.000000e+00	1.000000e+00	1.000000e+00	1.000000e+00	1.000000e+00	1.000000e+00	1.000000e+00	1.000000e+00	1.000000e+00	1.000000e+00	4.000000e+00	4.000000e+00	4.000000e+00	4.000000e+00	4.000000e+00	4.000000e+00	4.000000e+00	4.000000e+00	4.000000e+00	4.000000e+00	4.000000e+00	4.000000e+00	4.000000e+00	4.000000e+00	4.000000e+00	4.000000e+00	4.000000e+00	3.999999e+00	3.999997e+00	3.999984e+00	3.999894e+00	3.999126e+00	3.991624e+00	3.928506e+00	3.826964e+00	3.723785e+00	3.620050e+00	3.515382e+00	3.410655e+00	3.305143e+00	3.200912e+00	3.098968e+00	2.999220e+00	2.901570e+00	2.805901e+00	2.712106e+00	2.620121e+00	2.529905e+00	2.441435e+00	2.354651e+00	2.269465e+00	2.185817e+00	2.103611e+00	2.022670e+00	1.943131e+00	1.865431e+00	1.821468e+00	1.803617e+00	1.796237e+00	1.803113e+00	1.826849e+00	1.846475e+00	1.858192e+00	1.869535e+00	1.879529e+00	1.887812e+00	1.896294e+00	1.904997e+00	1.913723e+00	1.921848e+00	1.929643e+00	1.936890e+00	1.943802e+00	1.949560e+00	1.954193e+00	1.958453e+00	1.963716e+00	1.970857e+00	1.979808e+00	1.990136e+00	2.000749e+00	2.007176e+00	2.012044e+00	2.015387e+00	2.005043e+00	1.831555e+00	1.209866e+00	1.004090e+00	1.000036e+00	1.000000e+00	1.000000e+00	1.000000e+00	1.000000e+00	1.000000e+00	1.000000e+00	1.000000e+00	1.000000e+00	1.000000e+00	1.000000e+00	1.000000e+00	1.000000e+00	1.000000e+00	1.000000e+00	1.000000e+00	1.000000e+00	1.000000e+00	1.000000e+00	1.000000e+00	1.000000e+00	1.000000e+00	1.000000e+00	1.000000e+00	4.000000e+00	4.000000e+00	4.000000e+00	4.000000e+00	4.000000e+00	4.000000e+00	4.000000e+00	4.000000e+00	4.000000e+00	4.000000e+00	4.000000e+00	4.000000e+00	4.000000e+00	4.000000e+00	4.000000e+00	4.000000e+00	4.000000e+00	4.000000e+00	3.999999e+00	3.999990e+00	3.999916e+00	3.999121e+00	3.990599e+00	3.919399e+00	3.811106e+00	3.703625e+00	3.599952e+00	3.497223e+00	3.394670e+00	3.292270e+00	3.189505e+00	3.088325e+00	2.989368e+00	2.892453e+00	2.797469e+00	2.704320e+00	2.612939e+00	2.523285e+00	2.435319e+00	2.348978e+00	2.264198e+00	2.180917e+00	2.099045e+00	2.018415e+00	1.939125e+00	1.862569e+00	1.821533e+00	1.804690e+00	1.797601e+00	1.806664e+00	1.829452e+00	1.846919e+00	1.858692e+00	1.870110e+00	1.879695e+00	1.887559e+00	1.895302e+00	1.903118e+00	1.910769e+00	1.917875e+00	1.924555e+00	1.930379e+00	1.935565e+00	1.940679e+00	1.945379e+00	1.949031e+00	1.953655e+00	1.963797e+00	1.975749e+00	1.988479e+00	2.003346e+00	2.016628e+00	2.023841e+00	2.029911e+00	2.015394e+00	1.793265e+00	1.175792e+00	1.002943e+00	1.000025e+00	1.000000e+00	1.000000e+00	1.000000e+00	1.000000e+00	1.000000e+00	1.000000e+00	1.000000e+00	1.000000e+00	1.000000e+00	1.000000e+00	1.000000e+00	1.000000e+00	1.000000e+00	1.000000e+00	1.000000e+00	1.000000e+00	1.000000e+00	1.000000e+00	1.000000e+00	1.000000e+00	1.000000e+00	1.000000e+00	1.000000e+00	4.000000e+00	4.000000e+00	4.000000e+00	4.000000e+00	4.000000e+00	4.000000e+00	4.000000e+00	4.000000e+00	4.000000e+00	4.000000e+00	4.000000e+00	4.000000e+00	4.000000e+00	4.000000e+00	4.000000e+00	4.000000e+00	4.000000e+00	4.000000e+00	3.999999e+00	3.999991e+00	3.999898e+00	3.998861e+00	3.986684e+00	3.903519e+00	3.791955e+00	3.681524e+00	3.575812e+00	3.474614e+00	3.374060e+00	3.274538e+00	3.174928e+00	3.075127e+00	2.976934e+00	2.880733e+00	2.786432e+00	2.693959e+00	2.603250e+00	2.514243e+00	2.426881e+00	2.341085e+00	2.256824e+00	2.174021e+00	2.092594e+00	2.012403e+00	1.933125e+00	1.858754e+00	1.821372e+00	1.806118e+00	1.800029e+00	1.813062e+00	1.834288e+00	1.847702e+00	1.858974e+00	1.870642e+00	1.880595e+00	1.888884e+00	1.896779e+00	1.904570e+00	1.911984e+00	1.918572e+00	1.924865e+00	1.930540e+00	1.935762e+00	1.941053e+00	1.945740e+00	1.951079e+00	1.956803e+00	1.964624e+00	1.974576e+00	1.988945e+00	2.009043e+00	2.020749e+00	2.028070e+00	2.034009e+00	2.014420e+00	1.757666e+00	1.144827e+00	1.002053e+00	1.000018e+00	1.000000e+00	1.000000e+00	1.000000e+00	1.000000e+00	1.000000e+00	1.000000e+00	1.000000e+00	1.000000e+00	1.000000e+00	1.000000e+00	1.000000e+00	1.000000e+00	1.000000e+00	1.000000e+00	1.000000e+00	1.000000e+00	1.000000e+00	1.000000e+00	1.000000e+00	1.000000e+00	1.000000e+00	1.000000e+00	1.000000e+00	4.000000e+00	4.000000e+00	4.000000e+00	4.000000e+00	4.000000e+00	4.000000e+00	4.000000e+00	4.000000e+00	4.000000e+00	4.000000e+00	4.000000e+00	4.000000e+00	4.000000e+00	4.000000e+00	4.000000e+00	4.000000e+00	4.000000e+00	4.000000e+00	3.999999e+00	3.999987e+00	3.999849e+00	3.998264e+00	3.977757e+00	3.880671e+00	3.768358e+00	3.657396e+00	3.549737e+00	3.447531e+00	3.349521e+00	3.251919e+00	3.155898e+00	3.058928e+00	2.962072e+00	2.866641e+00	2.773013e+00	2.681199e+00	2.591178e+00	2.502856e+00	2.416153e+00	2.330972e+00	2.247300e+00	2.165066e+00	2.084184e+00	2.004521e+00	1.925237e+00	1.854127e+00	1.820614e+00	1.807425e+00	1.803086e+00	1.820099e+00	1.839654e+00	1.848517e+00	1.859359e+00	1.871784e+00	1.883150e+00	1.892657e+00	1.901288e+00	1.909501e+00	1.917292e+00	1.923824e+00	1.930291e+00	1.936461e+00	1.942479e+00	1.949614e+00	1.956425e+00	1.961778e+00	1.966115e+00	1.973681e+00	1.981266e+00	1.995296e+00	2.011314e+00	2.017978e+00	2.023843e+00	2.024756e+00	2.000552e+00	1.720302e+00	1.123116e+00	1.001577e+00	1.000014e+00	1.000000e+00	1.000000e+00	1.000000e+00	1.000000e+00	1.000000e+00	1.000000e+00	1.000000e+00	1.000000e+00	1.000000e+00	1.000000e+00	1.000000e+00	1.000000e+00	1.000000e+00	1.000000e+00	1.000000e+00	1.000000e+00	1.000000e+00	1.000000e+00	1.000000e+00	1.000000e+00	1.000000e+00	1.000000e+00	1.000000e+00	4.000000e+00	4.000000e+00	4.000000e+00	4.000000e+00	4.000000e+00	4.000000e+00	4.000000e+00	4.000000e+00	4.000000e+00	4.000000e+00	4.000000e+00	4.000000e+00	4.000000e+00	4.000000e+00	4.000000e+00	4.000000e+00	4.000000e+00	4.000000e+00	3.999998e+00	3.999977e+00	3.999733e+00	3.996722e+00	3.960224e+00	3.852842e+00	3.740340e+00	3.629430e+00	3.521604e+00	3.418556e+00	3.320771e+00	3.225995e+00	3.131557e+00	3.038511e+00	2.944380e+00	2.850258e+00	2.757428e+00	2.666308e+00	2.576959e+00	2.489315e+00	2.403292e+00	2.318785e+00	2.235767e+00	2.154188e+00	2.073933e+00	1.994900e+00	1.915594e+00	1.848877e+00	1.819548e+00	1.808507e+00	1.806881e+00	1.827196e+00	1.845609e+00	1.852435e+00	1.862159e+00	1.875524e+00	1.889008e+00	1.900597e+00	1.910065e+00	1.918381e+00	1.926296e+00	1.932771e+00	1.939060e+00	1.945710e+00	1.952664e+00	1.959978e+00	1.967664e+00	1.973238e+00	1.979507e+00	1.987522e+00	1.994563e+00	1.999139e+00	2.001669e+00	2.005043e+00	2.008330e+00	2.007767e+00	1.981139e+00	1.683782e+00	1.103230e+00	1.001149e+00	1.000010e+00	1.000000e+00	1.000000e+00	1.000000e+00	1.000000e+00	1.000000e+00	1.000000e+00	1.000000e+00	1.000000e+00	1.000000e+00	1.000000e+00	1.000000e+00	1.000000e+00	1.000000e+00	1.000000e+00	1.000000e+00	1.000000e+00	1.000000e+00	1.000000e+00	1.000000e+00	1.000000e+00	1.000000e+00	1.000000e+00	1.000000e+00	4.000000e+00	4.000000e+00	4.000000e+00	4.000000e+00	4.000000e+00	4.000000e+00	4.000000e+00	4.000000e+00	4.000000e+00	4.000000e+00	4.000000e+00	4.000000e+00	4.000000e+00	4.000000e+00	4.000000e+00	4.000000e+00	4.000000e+00	4.000000e+00	3.999996e+00	3.999955e+00	3.999443e+00	3.993247e+00	3.930826e+00	3.819851e+00	3.707295e+00	3.597106e+00	3.490822e+00	3.388195e+00	3.290410e+00	3.196401e+00	3.104264e+00	3.012624e+00	2.922295e+00	2.831121e+00	2.739715e+00	2.649516e+00	2.560893e+00	2.473943e+00	2.388592e+00	2.304763e+00	2.222430e+00	2.141568e+00	2.062004e+00	1.983777e+00	1.904504e+00	1.843374e+00	1.818208e+00	1.809185e+00	1.811362e+00	1.834672e+00	1.853070e+00	1.860481e+00	1.870619e+00	1.883230e+00	1.896628e+00	1.909418e+00	1.919985e+00	1.929044e+00	1.937282e+00	1.943360e+00	1.949154e+00	1.955864e+00	1.962737e+00	1.969600e+00	1.976116e+00	1.982477e+00	1.991153e+00	1.994996e+00	1.995911e+00	1.995542e+00	1.992172e+00	1.991710e+00	1.994989e+00	1.995430e+00	1.967071e+00	1.639150e+00	1.076901e+00	1.000690e+00	1.000007e+00	1.000000e+00	1.000000e+00	1.000000e+00	1.000000e+00	1.000000e+00	1.000000e+00	1.000000e+00	1.000000e+00	1.000000e+00	1.000000e+00	1.000000e+00	1.000000e+00	1.000000e+00	1.000000e+00	1.000000e+00	1.000000e+00	1.000000e+00	1.000000e+00	1.000000e+00	1.000000e+00	1.000000e+00	1.000000e+00	1.000000e+00	4.000000e+00	4.000000e+00	4.000000e+00	4.000000e+00	4.000000e+00	4.000000e+00	4.000000e+00	4.000000e+00	4.000000e+00	4.000000e+00	4.000000e+00	4.000000e+00	4.000000e+00	4.000000e+00	4.000000e+00	4.000000e+00	4.000000e+00	3.999999e+00	3.999992e+00	3.999897e+00	3.998734e+00	3.983260e+00	3.892173e+00	3.779816e+00	3.668697e+00	3.560592e+00	3.457099e+00	3.356546e+00	3.259099e+00	3.165041e+00	3.073865e+00	2.983935e+00	2.894976e+00	2.807343e+00	2.719269e+00	2.630676e+00	2.543132e+00	2.456952e+00	2.372308e+00	2.289193e+00	2.207591e+00	2.127518e+00	2.048707e+00	1.971406e+00	1.892842e+00	1.837792e+00	1.816903e+00	1.809692e+00	1.817415e+00	1.844050e+00	1.864301e+00	1.872959e+00	1.882892e+00	1.893686e+00	1.904504e+00	1.915995e+00	1.927119e+00	1.936743e+00	1.945546e+00	1.951653e+00	1.957646e+00	1.963243e+00	1.969435e+00	1.976538e+00	1.982311e+00	1.986309e+00	1.988021e+00	1.990426e+00	1.991384e+00	1.989084e+00	1.984167e+00	1.982567e+00	1.987462e+00	1.989956e+00	1.957260e+00	1.576367e+00	1.046753e+00	1.000410e+00	1.000004e+00	1.000000e+00	1.000000e+00	1.000000e+00	1.000000e+00	1.000000e+00	1.000000e+00	1.000000e+00	1.000000e+00	1.000000e+00	1.000000e+00	1.000000e+00	1.000000e+00	1.000000e+00	1.000000e+00	1.000000e+00	1.000000e+00	1.000000e+00	1.000000e+00	1.000000e+00	1.000000e+00	1.000000e+00	1.000000e+00	1.000000e+00	4.000000e+00	4.000000e+00	4.000000e+00	4.000000e+00	4.000000e+00	4.000000e+00	4.000000e+00	4.000000e+00	4.000000e+00	4.000000e+00	4.000000e+00	4.000000e+00	4.000000e+00	4.000000e+00	4.000000e+00	4.000000e+00	4.000000e+00	3.999998e+00	3.999980e+00	3.999746e+00	3.996729e+00	3.959008e+00	3.848129e+00	3.733662e+00	3.624406e+00	3.520332e+00	3.420520e+00	3.322975e+00	3.226875e+00	3.132779e+00	3.041356e+00	2.952548e+00	2.864939e+00	2.778539e+00	2.693488e+00	2.608788e+00	2.523257e+00	2.438330e+00	2.354614e+00	2.272309e+00	2.191496e+00	2.112281e+00	2.034392e+00	1.958052e+00	1.881505e+00	1.833036e+00	1.816404e+00	1.811120e+00	1.825900e+00	1.855538e+00	1.876404e+00	1.884617e+00	1.893637e+00	1.903769e+00	1.913086e+00	1.922631e+00	1.932380e+00	1.941403e+00	1.950144e+00	1.956270e+00	1.962043e+00	1.966272e+00	1.971290e+00	1.973718e+00	1.976142e+00	1.979106e+00	1.981990e+00	1.984872e+00	1.985305e+00	1.981903e+00	1.976521e+00	1.978986e+00	1.988874e+00	1.994633e+00	1.947532e+00	1.488628e+00	1.018121e+00	1.000227e+00	1.000002e+00	1.000000e+00	1.000000e+00	1.000000e+00	1.000000e+00	1.000000e+00	1.000000e+00	1.000000e+00	1.000000e+00	1.000000e+00	1.000000e+00	1.000000e+00	1.000000e+00	1.000000e+00	1.000000e+00	1.000000e+00	1.000000e+00	1.000000e+00	1.000000e+00	1.000000e+00	1.000000e+00	1.000000e+00	1.000000e+00	1.000000e+00	4.000000e+00	4.000000e+00	4.000000e+00	4.000000e+00	4.000000e+00	4.000000e+00	4.000000e+00	4.000000e+00	4.000000e+00	4.000000e+00	4.000000e+00	4.000000e+00	4.000000e+00	4.000000e+00	4.000000e+00	4.000000e+00	4.000000e+00	3.999996e+00	3.999944e+00	3.999279e+00	3.991072e+00	3.912708e+00	3.796192e+00	3.682100e+00	3.576464e+00	3.477006e+00	3.380922e+00	3.286540e+00	3.192866e+00	3.099967e+00	3.008756e+00	2.919718e+00	2.832870e+00	2.747485e+00	2.663542e+00	2.580935e+00	2.499224e+00	2.417152e+00	2.335055e+00	2.253967e+00	2.174175e+00	2.095934e+00	2.019232e+00	1.943823e+00	1.870837e+00	1.830542e+00	1.818183e+00	1.815945e+00	1.836654e+00	1.865236e+00	1.885556e+00	1.893003e+00	1.900449e+00	1.908887e+00	1.917284e+00	1.927383e+00	1.937861e+00	1.945950e+00	1.953413e+00	1.959550e+00	1.964112e+00	1.968070e+00	1.970519e+00	1.970622e+00	1.972607e+00	1.974918e+00	1.977351e+00	1.978711e+00	1.977701e+00	1.974083e+00	1.975978e+00	1.985178e+00	2.002149e+00	2.004631e+00	1.924750e+00	1.363496e+00	1.009957e+00	1.000105e+00	1.000001e+00	1.000000e+00	1.000000e+00	1.000000e+00	1.000000e+00	1.000000e+00	1.000000e+00	1.000000e+00	1.000000e+00	1.000000e+00	1.000000e+00	1.000000e+00	1.000000e+00	1.000000e+00	1.000000e+00	1.000000e+00	1.000000e+00	1.000000e+00	1.000000e+00	1.000000e+00	1.000000e+00	1.000000e+00	1.000000e+00	1.000000e+00	4.000000e+00	4.000000e+00	4.000000e+00	4.000000e+00	4.000000e+00	4.000000e+00	4.000000e+00	4.000000e+00	4.000000e+00	4.000000e+00	4.000000e+00	4.000000e+00	4.000000e+00	4.000000e+00	4.000000e+00	4.000000e+00	3.999999e+00	3.999987e+00	3.999828e+00	3.997704e+00	3.968473e+00	3.854971e+00	3.736066e+00	3.626902e+00	3.526350e+00	3.431154e+00	3.338367e+00	3.246853e+00	3.155978e+00	3.065164e+00	2.975255e+00	2.886399e+00	2.799666e+00	2.714948e+00	2.631884e+00	2.550361e+00	2.470153e+00	2.390975e+00	2.312103e+00	2.233152e+00	2.155046e+00	2.078141e+00	2.003016e+00	1.928362e+00	1.862087e+00	1.831126e+00	1.822652e+00	1.825162e+00	1.846571e+00	1.871867e+00	1.890796e+00	1.897643e+00	1.903456e+00	1.910012e+00	1.916438e+00	1.924338e+00	1.935522e+00	1.948127e+00	1.958470e+00	1.966168e+00	1.969895e+00	1.972168e+00	1.973212e+00	1.972618e+00	1.973399e+00	1.973950e+00	1.974426e+00	1.973238e+00	1.972854e+00	1.976594e+00	1.987457e+00	2.001948e+00	2.015553e+00	2.013843e+00	1.873066e+00	1.238460e+00	1.004728e+00	1.000040e+00	1.000000e+00	1.000000e+00	1.000000e+00	1.000000e+00	1.000000e+00	1.000000e+00	1.000000e+00	1.000000e+00	1.000000e+00	1.000000e+00	1.000000e+00	1.000000e+00	1.000000e+00	1.000000e+00	1.000000e+00	1.000000e+00	1.000000e+00	1.000000e+00	1.000000e+00	1.000000e+00	1.000000e+00	1.000000e+00	1.000000e+00	1.000000e+00	4.000000e+00	4.000000e+00	4.000000e+00	4.000000e+00	4.000000e+00	4.000000e+00	4.000000e+00	4.000000e+00	4.000000e+00	4.000000e+00	4.000000e+00	4.000000e+00	4.000000e+00	4.000000e+00	4.000000e+00	4.000000e+00	3.999996e+00	3.999953e+00	3.999368e+00	3.991602e+00	3.911171e+00	3.787862e+00	3.672549e+00	3.569659e+00	3.474350e+00	3.382896e+00	3.292934e+00	3.203950e+00	3.115609e+00	3.027729e+00	2.939924e+00	2.852608e+00	2.766263e+00	2.681551e+00	2.598949e+00	2.518162e+00	2.439050e+00	2.361259e+00	2.284516e+00	2.208524e+00	2.132885e+00	2.058025e+00	1.984955e+00	1.912159e+00	1.856481e+00	1.834493e+00	1.828497e+00	1.834215e+00	1.853630e+00	1.874960e+00	1.892279e+00	1.899368e+00	1.903895e+00	1.908843e+00	1.913809e+00	1.919513e+00	1.927491e+00	1.937584e+00	1.949327e+00	1.965653e+00	1.977839e+00	1.984127e+00	1.983045e+00	1.982540e+00	1.981832e+00	1.980666e+00	1.980450e+00	1.980396e+00	1.982064e+00	1.990856e+00	2.002921e+00	2.018887e+00	2.026633e+00	2.015725e+00	1.772514e+00	1.140626e+00	1.001812e+00	1.000014e+00	1.000000e+00	1.000000e+00	1.000000e+00	1.000000e+00	1.000000e+00	1.000000e+00	1.000000e+00	1.000000e+00	1.000000e+00	1.000000e+00	1.000000e+00	1.000000e+00	1.000000e+00	1.000000e+00	1.000000e+00	1.000000e+00	1.000000e+00	1.000000e+00	1.000000e+00	1.000000e+00	1.000000e+00	1.000000e+00	1.000000e+00	1.000000e+00	4.000000e+00	4.000000e+00	4.000000e+00	4.000000e+00	4.000000e+00	4.000000e+00	4.000000e+00	4.000000e+00	4.000000e+00	4.000000e+00	4.000000e+00	4.000000e+00	4.000000e+00	4.000000e+00	4.000000e+00	3.999999e+00	3.999984e+00	3.999792e+00	3.997077e+00	3.957582e+00	3.834540e+00	3.714058e+00	3.607469e+00	3.511130e+00	3.420394e+00	3.332190e+00	3.244828e+00	3.158154e+00	3.072126e+00	2.986995e+00	2.901629e+00	2.817027e+00	2.732334e+00	2.648507e+00	2.566002e+00	2.485354e+00	2.406584e+00	2.329668e+00	2.254263e+00	2.180039e+00	2.106923e+00	2.034733e+00	1.964197e+00	1.896574e+00	1.853534e+00	1.838486e+00	1.833769e+00	1.841295e+00	1.857394e+00	1.874976e+00	1.890836e+00	1.899164e+00	1.903141e+00	1.906755e+00	1.910426e+00	1.914606e+00	1.919070e+00	1.925499e+00	1.934946e+00	1.947934e+00	1.964831e+00	1.983294e+00	1.997052e+00	2.002905e+00	2.000163e+00	1.997317e+00	1.994899e+00	1.995533e+00	2.000755e+00	2.009566e+00	2.020747e+00	2.029593e+00	2.033919e+00	2.002928e+00	1.642805e+00	1.067270e+00	1.000571e+00	1.000006e+00	1.000000e+00	1.000000e+00	1.000000e+00	1.000000e+00	1.000000e+00	1.000000e+00	1.000000e+00	1.000000e+00	1.000000e+00	1.000000e+00	1.000000e+00	1.000000e+00	1.000000e+00	1.000000e+00	1.000000e+00	1.000000e+00	1.000000e+00	1.000000e+00	1.000000e+00	1.000000e+00	1.000000e+00	1.000000e+00	1.000000e+00	1.000000e+00	3.999999e+00	4.000000e+00	4.000000e+00	4.000000