# vtk DataFile Version 3.0
vtk output
ASCII
DATASET STRUCTURED_GRID
DIMENSIONS 102 102 1
POINTS 10404 double
0.000000e+00	0.000000e+00	0.0	1.980198e+00	0.000000e+00	0.0	3.960396e+00	0.000000e+00	0.0	5.940594e+00	0.000000e+00	0.0	7.920792e+00	0.000000e+00	0.0	9.900990e+00	0.000000e+00	0.0	1.188119e+01	0.000000e+00	0.0	1.386139e+01	0.000000e+00	0.0	1.584158e+01	0.000000e+00	0.0	1.782178e+01	0.000000e+00	0.0	1.980198e+01	0.000000e+00	0.0	2.178218e+01	0.000000e+00	0.0	2.376238e+01	0.000000e+00	0.0	2.574257e+01	0.000000e+00	0.0	2.772277e+01	0.000000e+00	0.0	2.970297e+01	0.000000e+00	0.0	3.168317e+01	0.000000e+00	0.0	3.366337e+01	0.000000e+00	0.0	3.564356e+01	0.000000e+00	0.0	3.762376e+01	0.000000e+00	0.0	3.960396e+01	0.000000e+00	0.0	4.158416e+01	0.000000e+00	0.0	4.356436e+01	0.000000e+00	0.0	4.554455e+01	0.000000e+00	0.0	4.752475e+01	0.000000e+00	0.0	4.950495e+01	0.000000e+00	0.0	5.148515e+01	0.000000e+00	0.0	5.346535e+01	0.000000e+00	0.0	5.544554e+01	0.000000e+00	0.0	5.742574e+01	0.000000e+00	0.0	5.940594e+01	0.000000e+00	0.0	6.138614e+01	0.000000e+00	0.0	6.336634e+01	0.000000e+00	0.0	6.534653e+01	0.000000e+00	0.0	6.732673e+01	0.000000e+00	0.0	6.930693e+01	0.000000e+00	0.0	7.128713e+01	0.000000e+00	0.0	7.326733e+01	0.000000e+00	0.0	7.524752e+01	0.000000e+00	0.0	7.722772e+01	0.000000e+00	0.0	7.920792e+01	0.000000e+00	0.0	8.118812e+01	0.000000e+00	0.0	8.316832e+01	0.000000e+00	0.0	8.514851e+01	0.000000e+00	0.0	8.712871e+01	0.000000e+00	0.0	8.910891e+01	0.000000e+00	0.0	9.108911e+01	0.000000e+00	0.0	9.306931e+01	0.000000e+00	0.0	9.504950e+01	0.000000e+00	0.0	9.702970e+01	0.000000e+00	0.0	9.900990e+01	0.000000e+00	0.0	1.009901e+02	0.000000e+00	0.0	1.029703e+02	0.000000e+00	0.0	1.049505e+02	0.000000e+00	0.0	1.069307e+02	0.000000e+00	0.0	1.089109e+02	0.000000e+00	0.0	1.108911e+02	0.000000e+00	0.0	1.128713e+02	0.000000e+00	0.0	1.148515e+02	0.000000e+00	0.0	1.168317e+02	0.000000e+00	0.0	1.188119e+02	0.000000e+00	0.0	1.207921e+02	0.000000e+00	0.0	1.227723e+02	0.000000e+00	0.0	1.247525e+02	0.000000e+00	0.0	1.267327e+02	0.000000e+00	0.0	1.287129e+02	0.000000e+00	0.0	1.306931e+02	0.000000e+00	0.0	1.326733e+02	0.000000e+00	0.0	1.346535e+02	0.000000e+00	0.0	1.366337e+02	0.000000e+00	0.0	1.386139e+02	0.000000e+00	0.0	1.405941e+02	0.000000e+00	0.0	1.425743e+02	0.000000e+00	0.0	1.445545e+02	0.000000e+00	0.0	1.465347e+02	0.000000e+00	0.0	1.485149e+02	0.000000e+00	0.0	1.504950e+02	0.000000e+00	0.0	1.524752e+02	0.000000e+00	0.0	1.544554e+02	0.000000e+00	0.0	1.564356e+02	0.000000e+00	0.0	1.584158e+02	0.000000e+00	0.0	1.603960e+02	0.000000e+00	0.0	1.623762e+02	0.000000e+00	0.0	1.643564e+02	0.000000e+00	0.0	1.663366e+02	0.000000e+00	0.0	1.683168e+02	0.000000e+00	0.0	1.702970e+02	0.000000e+00	0.0	1.722772e+02	0.000000e+00	0.0	1.742574e+02	0.000000e+00	0.0	1.762376e+02	0.000000e+00	0.0	1.782178e+02	0.000000e+00	0.0	1.801980e+02	0.000000e+00	0.0	1.821782e+02	0.000000e+00	0.0	1.841584e+02	0.000000e+00	0.0	1.861386e+02	0.000000e+00	0.0	1.881188e+02	0.000000e+00	0.0	1.900990e+02	0.000000e+00	0.0	1.920792e+02	0.000000e+00	0.0	1.940594e+02	0.000000e+00	0.0	1.960396e+02	0.000000e+00	0.0	1.980198e+02	0.000000e+00	0.0	2.000000e+02	0.000000e+00	0.0	0.000000e+00	1.980198e+00	0.0	1.980198e+00	1.980198e+00	0.0	3.960396e+00	1.980198e+00	0.0	5.940594e+00	1.980198e+00	0.0	7.920792e+00	1.980198e+00	0.0	9.900990e+00	1.980198e+00	0.0	1.188119e+01	1.980198e+00	0.0	1.386139e+01	1.980198e+00	0.0	1.584158e+01	1.980198e+00	0.0	1.782178e+01	1.980198e+00	0.0	1.980198e+01	1.980198e+00	0.0	2.178218e+01	1.980198e+00	0.0	2.376238e+01	1.980198e+00	0.0	2.574257e+01	1.980198e+00	0.0	2.772277e+01	1.980198e+00	0.0	2.970297e+01	1.980198e+00	0.0	3.168317e+01	1.980198e+00	0.0	3.366337e+01	1.980198e+00	0.0	3.564356e+01	1.980198e+00	0.0	3.762376e+01	1.980198e+00	0.0	3.960396e+01	1.980198e+00	0.0	4.158416e+01	1.980198e+00	0.0	4.356436e+01	1.980198e+00	0.0	4.554455e+01	1.980198e+00	0.0	4.752475e+01	1.980198e+00	0.0	4.950495e+01	1.980198e+00	0.0	5.148515e+01	1.980198e+00	0.0	5.346535e+01	1.980198e+00	0.0	5.544554e+01	1.980198e+00	0.0	5.742574e+01	1.980198e+00	0.0	5.940594e+01	1.980198e+00	0.0	6.138614e+01	1.980198e+00	0.0	6.336634e+01	1.980198e+00	0.0	6.534653e+01	1.980198e+00	0.0	6.732673e+01	1.980198e+00	0.0	6.930693e+01	1.980198e+00	0.0	7.128713e+01	1.980198e+00	0.0	7.326733e+01	1.980198e+00	0.0	7.524752e+01	1.980198e+00	0.0	7.722772e+01	1.980198e+00	0.0	7.920792e+01	1.980198e+00	0.0	8.118812e+01	1.980198e+00	0.0	8.316832e+01	1.980198e+00	0.0	8.514851e+01	1.980198e+00	0.0	8.712871e+01	1.980198e+00	0.0	8.910891e+01	1.980198e+00	0.0	9.108911e+01	1.980198e+00	0.0	9.306931e+01	1.980198e+00	0.0	9.504950e+01	1.980198e+00	0.0	9.702970e+01	1.980198e+00	0.0	9.900990e+01	1.980198e+00	0.0	1.009901e+02	1.980198e+00	0.0	1.029703e+02	1.980198e+00	0.0	1.049505e+02	1.980198e+00	0.0	1.069307e+02	1.980198e+00	0.0	1.089109e+02	1.980198e+00	0.0	1.108911e+02	1.980198e+00	0.0	1.128713e+02	1.980198e+00	0.0	1.148515e+02	1.980198e+00	0.0	1.168317e+02	1.980198e+00	0.0	1.188119e+02	1.980198e+00	0.0	1.207921e+02	1.980198e+00	0.0	1.227723e+02	1.980198e+00	0.0	1.247525e+02	1.980198e+00	0.0	1.267327e+02	1.980198e+00	0.0	1.287129e+02	1.980198e+00	0.0	1.306931e+02	1.980198e+00	0.0	1.326733e+02	1.980198e+00	0.0	1.346535e+02	1.980198e+00	0.0	1.366337e+02	1.980198e+00	0.0	1.386139e+02	1.980198e+00	0.0	1.405941e+02	1.980198e+00	0.0	1.425743e+02	1.980198e+00	0.0	1.445545e+02	1.980198e+00	0.0	1.465347e+02	1.980198e+00	0.0	1.485149e+02	1.980198e+00	0.0	1.504950e+02	1.980198e+00	0.0	1.524752e+02	1.980198e+00	0.0	1.544554e+02	1.980198e+00	0.0	1.564356e+02	1.980198e+00	0.0	1.584158e+02	1.980198e+00	0.0	1.603960e+02	1.980198e+00	0.0	1.623762e+02	1.980198e+00	0.0	1.643564e+02	1.980198e+00	0.0	1.663366e+02	1.980198e+00	0.0	1.683168e+02	1.980198e+00	0.0	1.702970e+02	1.980198e+00	0.0	1.722772e+02	1.980198e+00	0.0	1.742574e+02	1.980198e+00	0.0	1.762376e+02	1.980198e+00	0.0	1.782178e+02	1.980198e+00	0.0	1.801980e+02	1.980198e+00	0.0	1.821782e+02	1.980198e+00	0.0	1.841584e+02	1.980198e+00	0.0	1.861386e+02	1.980198e+00	0.0	1.881188e+02	1.980198e+00	0.0	1.900990e+02	1.980198e+00	0.0	1.920792e+02	1.980198e+00	0.0	1.940594e+02	1.980198e+00	0.0	1.960396e+02	1.980198e+00	0.0	1.980198e+02	1.980198e+00	0.0	2.000000e+02	1.980198e+00	0.0	0.000000e+00	3.960396e+00	0.0	1.980198e+00	3.960396e+00	0.0	3.960396e+00	3.960396e+00	0.0	5.940594e+00	3.960396e+00	0.0	7.920792e+00	3.960396e+00	0.0	9.900990e+00	3.960396e+00	0.0	1.188119e+01	3.960396e+00	0.0	1.386139e+01	3.960396e+00	0.0	1.584158e+01	3.960396e+00	0.0	1.782178e+01	3.960396e+00	0.0	1.980198e+01	3.960396e+00	0.0	2.178218e+01	3.960396e+00	0.0	2.376238e+01	3.960396e+00	0.0	2.574257e+01	3.960396e+00	0.0	2.772277e+01	3.960396e+00	0.0	2.970297e+01	3.960396e+00	0.0	3.168317e+01	3.960396e+00	0.0	3.366337e+01	3.960396e+00	0.0	3.564356e+01	3.960396e+00	0.0	3.762376e+01	3.960396e+00	0.0	3.960396e+01	3.960396e+00	0.0	4.158416e+01	3.960396e+00	0.0	4.356436e+01	3.960396e+00	0.0	4.554455e+01	3.960396e+00	0.0	4.752475e+01	3.960396e+00	0.0	4.950495e+01	3.960396e+00	0.0	5.148515e+01	3.960396e+00	0.0	5.346535e+01	3.960396e+00	0.0	5.544554e+01	3.960396e+00	0.0	5.742574e+01	3.960396e+00	0.0	5.940594e+01	3.960396e+00	0.0	6.138614e+01	3.960396e+00	0.0	6.336634e+01	3.960396e+00	0.0	6.534653e+01	3.960396e+00	0.0	6.732673e+01	3.960396e+00	0.0	6.930693e+01	3.960396e+00	0.0	7.128713e+01	3.960396e+00	0.0	7.326733e+01	3.960396e+00	0.0	7.524752e+01	3.960396e+00	0.0	7.722772e+01	3.960396e+00	0.0	7.920792e+01	3.960396e+00	0.0	8.118812e+01	3.960396e+00	0.0	8.316832e+01	3.960396e+00	0.0	8.514851e+01	3.960396e+00	0.0	8.712871e+01	3.960396e+00	0.0	8.910891e+01	3.960396e+00	0.0	9.108911e+01	3.960396e+00	0.0	9.306931e+01	3.960396e+00	0.0	9.504950e+01	3.960396e+00	0.0	9.702970e+01	3.960396e+00	0.0	9.900990e+01	3.960396e+00	0.0	1.009901e+02	3.960396e+00	0.0	1.029703e+02	3.960396e+00	0.0	1.049505e+02	3.960396e+00	0.0	1.069307e+02	3.960396e+00	0.0	1.089109e+02	3.960396e+00	0.0	1.108911e+02	3.960396e+00	0.0	1.128713e+02	3.960396e+00	0.0	1.148515e+02	3.960396e+00	0.0	1.168317e+02	3.960396e+00	0.0	1.188119e+02	3.960396e+00	0.0	1.207921e+02	3.960396e+00	0.0	1.227723e+02	3.960396e+00	0.0	1.247525e+02	3.960396e+00	0.0	1.267327e+02	3.960396e+00	0.0	1.287129e+02	3.960396e+00	0.0	1.306931e+02	3.960396e+00	0.0	1.326733e+02	3.960396e+00	0.0	1.346535e+02	3.960396e+00	0.0	1.366337e+02	3.960396e+00	0.0	1.386139e+02	3.960396e+00	0.0	1.405941e+02	3.960396e+00	0.0	1.425743e+02	3.960396e+00	0.0	1.445545e+02	3.960396e+00	0.0	1.465347e+02	3.960396e+00	0.0	1.485149e+02	3.960396e+00	0.0	1.504950e+02	3.960396e+00	0.0	1.524752e+02	3.960396e+00	0.0	1.544554e+02	3.960396e+00	0.0	1.564356e+02	3.960396e+00	0.0	1.584158e+02	3.960396e+00	0.0	1.603960e+02	3.960396e+00	0.0	1.623762e+02	3.960396e+00	0.0	1.643564e+02	3.960396e+00	0.0	1.663366e+02	3.960396e+00	0.0	1.683168e+02	3.960396e+00	0.0	1.702970e+02	3.960396e+00	0.0	1.722772e+02	3.960396e+00	0.0	1.742574e+02	3.960396e+00	0.0	1.762376e+02	3.960396e+00	0.0	1.782178e+02	3.960396e+00	0.0	1.801980e+02	3.960396e+00	0.0	1.821782e+02	3.960396e+00	0.0	1.841584e+02	3.960396e+00	0.0	1.861386e+02	3.960396e+00	0.0	1.881188e+02	3.960396e+00	0.0	1.900990e+02	3.960396e+00	0.0	1.920792e+02	3.960396e+00	0.0	1.940594e+02	3.960396e+00	0.0	1.960396e+02	3.960396e+00	0.0	1.980198e+02	3.960396e+00	0.0	2.000000e+02	3.960396e+00	0.0	0.000000e+00	5.940594e+00	0.0	1.980198e+00	5.940594e+00	0.0	3.960396e+00	5.940594e+00	0.0	5.940594e+00	5.940594e+00	0.0	7.920792e+00	5.940594e+00	0.0	9.900990e+00	5.940594e+00	0.0	1.188119e+01	5.940594e+00	0.0	1.386139e+01	5.940594e+00	0.0	1.584158e+01	5.940594e+00	0.0	1.782178e+01	5.940594e+00	0.0	1.980198e+01	5.940594e+00	0.0	2.178218e+01	5.940594e+00	0.0	2.376238e+01	5.940594e+00	0.0	2.574257e+01	5.940594e+00	0.0	2.772277e+01	5.940594e+00	0.0	2.970297e+01	5.940594e+00	0.0	3.168317e+01	5.940594e+00	0.0	3.366337e+01	5.940594e+00	0.0	3.564356e+01	5.940594e+00	0.0	3.762376e+01	5.940594e+00	0.0	3.960396e+01	5.940594e+00	0.0	4.158416e+01	5.940594e+00	0.0	4.356436e+01	5.940594e+00	0.0	4.554455e+01	5.940594
[...]
POINT_DATA 10404

SCALARS Height double 1
LOOKUP_TABLE default
4.000000e+00	4.000000e+00	4.000000e+00	4.000000e+00	4.000000e+00	4.000000e+00	4.000000e+00	4.000000e+00	4.000000e+00	3.999999e+00	3.999994e+00	3.999974e+00	3.999886e+00	3.999504e+00	3.997831e+00	3.990463e+00	3.959293e+00	3.891189e+00	3.805412e+00	3.712280e+00	3.615981e+00	3.519076e+00	3.423041e+00	3.328967e+00	3.237318e+00	3.148187e+00	3.061504e+00	2.977112e+00	2.894821e+00	2.814448e+00	2.735832e+00	2.658854e+00	2.583428e+00	2.509484e+00	2.436964e+00	2.365824e+00	2.296020e+00	2.227478e+00	2.160138e+00	2.093971e+00	2.028934e+00	1.964969e+00	1.901994e+00	1.839858e+00	1.777423e+00	1.726291e+00	1.704429e+00	1.695782e+00	1.693335e+00	1.715922e+00	1.743574e+00	1.761940e+00	1.773935e+00	1.787151e+00	1.798747e+00	1.808336e+00	1.817362e+00	1.825627e+00	1.833376e+00	1.841135e+00	1.849299e+00	1.857325e+00	1.864861e+00	1.872150e+00	1.878910e+00	1.885336e+00	1.891858e+00	1.898533e+00	1.904491e+00	1.910068e+00	1.915092e+00	1.920596e+00	1.928920e+00	1.941094e+00	1.956396e+00	1.972571e+00	1.984598e+00	1.989949e+00	1.992146e+00	1.987402e+00	1.953282e+00	1.737423e+00	1.238443e+00	1.013156e+00	1.000382e+00	1.000011e+00	1.000000e+00	1.000000e+00	1.000000e+00	1.000000e+00	1.000000e+00	1.000000e+00	1.000000e+00	1.000000e+00	1.000000e+00	1.000000e+00	1.000000e+00	1.000000e+00	1.000000e+00	1.000000e+00	1.000000e+00	1.000000e+00	4.000000e+00	4.000000e+00	4.000000e+00	4.000000e+00	4.000000e+00	4.000000e+00	4.000000e+00	4.000000e+00	4.000000e+00	3.999999e+00	3.999998e+00	3.999990e+00	3.999954e+00	3.999794e+00	3.999008e+00	3.994419e+00	3.962208e+00	3.888576e+00	3.803534e+00	3.712178e+00	3.617033e+00	3.520930e+00	3.425789e+00	3.332436e+00	3.241468e+00	3.152907e+00	3.066690e+00	2.982669e+00	2.900664e+00	2.820515e+00	2.742079e+00	2.665251e+00	2.589949e+00	2.516105e+00	2.443662e+00	2.372583e+00	2.302826e+00	2.234303e+00	2.166990e+00	2.100848e+00	2.035820e+00	1.971856e+00	1.908858e+00	1.846744e+00	1.784208e+00	1.733088e+00	1.711240e+00	1.702543e+00	1.699879e+00	1.722253e+00	1.749737e+00	1.767739e+00	1.779158e+00	1.792324e+00	1.804013e+00	1.813829e+00	1.823052e+00	1.831427e+00	1.839232e+00	1.847004e+00	1.855165e+00	1.863382e+00	1.871295e+00	1.879035e+00	1.886256e+00	1.893145e+00	1.900031e+00	1.907154e+00	1.913643e+00	1.919911e+00	1.925815e+00	1.932200e+00	1.940260e+00	1.950787e+00	1.962877e+00	1.976698e+00	1.987646e+00	1.992090e+00	1.992947e+00	1.988300e+00	1.963276e+00	1.755986e+00	1.180512e+00	1.003646e+00	1.000046e+00	1.000001e+00	1.000000e+00	1.000000e+00	1.000000e+00	1.000000e+00	1.000000e+00	1.000000e+00	1.000000e+00	1.000000e+00	1.000000e+00	1.000000e+00	1.000000e+00	1.000000e+00	1.000000e+00	1.000000e+00	1.000000e+00	1.000000e+00	4.000000e+00	4.000000e+00	4.000000e+00	4.000000e+00	4.000000e+00	4.000000e+00	4.000000e+00	4.000000e+00	4.000000e+00	4.000000e+00	3.999999e+00	3.999996e+00	3.999980e+00	3.999902e+00	3.999413e+00	3.995510e+00	3.960541e+00	3.878685e+00	3.790809e+00	3.698416e+00	3.604197e+00	3.507710e+00	3.411749e+00	3.318173e+00	3.227084e+00	3.138516e+00	3.052346e+00	2.968345e+00	2.886309e+00	2.806091e+00	2.727585e+00	2.650704e+00	2.575363e+00	2.501479e+00	2.429000e+00	2.357903e+00	2.288164e+00	2.219769e+00	2.152618e+00	2.086621e+00	2.021720e+00	1.957910e+00	1.895018e+00	1.833168e+00	1.770603e+00	1.721048e+00	1.700298e+00	1.692242e+00	1.691199e+00	1.714800e+00	1.741970e+00	1.759702e+00	1.771681e+00	1.785267e+00	1.797955e+00	1.809679e+00	1.820906e+00	1.830896e+00	1.839735e+00	1.847721e+00	1.855643e+00	1.863478e+00	1.871270e+00	1.879009e+00	1.886199e+00	1.892980e+00	1.899379e+00	1.906190e+00	1.913018e+00	1.920099e+00	1.926895e+00	1.933902e+00	1.940247e+00	1.946794e+00	1.953475e+00	1.961897e+00	1.967818e+00	1.972390e+00	1.975688e+00	1.975899e+00	1.960344e+00	1.758715e+00	1.171049e+00	1.002946e+00	1.000026e+00	1.000000e+00	1.000000e+00	1.000000e+00	1.000000e+00	1.000000e+00	1.000000e+00	1.000000e+00	1.000000e+00	1.000000e+00	1.000000e+00	1.000000e+00	1.000000e+00	1.000000e+00	1.000000e+00	1.000000e+00	1.000000e+00	1.000000e+00	4.000000e+00	4.000000e+00	4.000000e+00	4.000000e+00	4.000000e+00	4.000000e+00	4.000000e+00	4.000000e+00	4.000000e+00	4.000000e+00	4.000000e+00	3.999998e+00	3.999991e+00	3.999946e+00	3.999566e+00	3.995675e+00	3.956388e+00	3.866917e+00	3.774905e+00	3.682489e+00	3.589059e+00	3.496035e+00	3.402177e+00	3.310026e+00	3.220427e+00	3.133208e+00	3.048124e+00	2.964966e+00	2.883604e+00	2.803941e+00	2.725909e+00	2.649447e+00	2.574489e+00	2.500965e+00	2.428818e+00	2.358013e+00	2.288524e+00	2.220314e+00	2.153321e+00	2.087477e+00	2.022712e+00	1.959044e+00	1.896248e+00	1.834505e+00	1.772037e+00	1.724030e+00	1.704072e+00	1.696217e+00	1.696490e+00	1.720691e+00	1.747131e+00	1.764286e+00	1.776692e+00	1.790553e+00	1.803728e+00	1.816630e+00	1.829298e+00	1.840488e+00	1.849990e+00	1.858091e+00	1.865820e+00	1.873291e+00	1.880860e+00	1.888304e+00	1.895153e+00	1.901459e+00	1.907585e+00	1.913718e+00	1.920911e+00	1.928503e+00	1.936167e+00	1.943556e+00	1.949192e+00	1.953608e+00	1.957013e+00	1.957575e+00	1.958485e+00	1.961805e+00	1.966774e+00	1.970798e+00	1.959534e+00	1.752779e+00	1.162402e+00	1.002625e+00	1.000022e+00	1.000000e+00	1.000000e+00	1.000000e+00	1.000000e+00	1.000000e+00	1.000000e+00	1.000000e+00	1.000000e+00	1.000000e+00	1.000000e+00	1.000000e+00	1.000000e+00	1.000000e+00	1.000000e+00	1.000000e+00	1.000000e+00	1.000000e+00	4.000000e+00	4.000000e+00	4.000000e+00	4.000000e+00	4.000000e+00	4.000000e+00	4.000000e+00	4.000000e+00	4.000000e+00	4.000000e+00	4.000000e+00	3.999999e+00	3.999995e+00	3.999957e+00	3.999542e+00	3.994820e+00	3.947643e+00	3.851032e+00	3.754069e+00	3.660071e+00	3.567857e+00	3.476795e+00	3.386866e+00	3.296757e+00	3.208477e+00	3.122345e+00	3.038169e+00	2.955764e+00	2.875038e+00	2.795922e+00	2.718361e+00	2.642305e+00	2.567711e+00	2.494532e+00	2.422714e+00	2.352211e+00	2.282989e+00	2.215020e+00	2.148254e+00	2.082648e+00	2.018113e+00	1.954679e+00	1.892090e+00	1.830497e+00	1.768286e+00	1.722793e+00	1.704227e+00	1.696828e+00	1.699229e+00	1.724378e+00	1.750031e+00	1.766519e+00	1.779972e+00	1.794669e+00	1.808743e+00	1.822988e+00	1.837143e+00	1.849930e+00	1.860599e+00	1.869240e+00	1.876969e+00	1.883854e+00	1.890446e+00	1.896981e+00	1.903045e+00	1.908615e+00	1.914194e+00	1.920031e+00	1.926819e+00	1.934641e+00	1.942483e+00	1.950156e+00	1.954884e+00	1.954858e+00	1.952471e+00	1.949424e+00	1.947729e+00	1.951994e+00	1.960695e+00	1.968995e+00	1.958427e+00	1.737631e+00	1.145481e+00	1.002095e+00	1.000017e+00	1.000000e+00	1.000000e+00	1.000000e+00	1.000000e+00	1.000000e+00	1.000000e+00	1.000000e+00	1.000000e+00	1.000000e+00	1.000000e+00	1.000000e+00	1.000000e+00	1.000000e+00	1.000000e+00	1.000000e+00	1.000000e+00	1.000000e+00	4.000000e+00	4.000000e+00	4.000000e+00	4.000000e+00	4.000000e+00	4.000000e+00	4.000000e+00	4.000000e+00	4.000000e+00	4.000000e+00	4.000000e+00	3.999999e+00	3.999995e+00	3.999943e+00	3.999343e+00	3.992531e+00	3.931164e+00	3.830337e+00	3.728873e+00	3.631788e+00	3.540548e+00	3.452279e+00	3.366211e+00	3.279869e+00	3.193510e+00	3.108529e+00	3.025319e+00	2.943798e+00	2.863877e+00	2.785486e+00	2.708571e+00	2.633081e+00	2.558993e+00	2.486281e+00	2.414909e+00	2.344825e+00	2.275980e+00	2.208352e+00	2.141903e+00	2.076615e+00	2.012395e+00	1.949267e+00	1.886993e+00	1.825574e+00	1.763850e+00	1.721649e+00	1.704738e+00	1.697959e+00	1.703907e+00	1.729654e+00	1.754096e+00	1.770215e+00	1.786175e+00	1.802592e+00	1.817037e+00	1.830570e+00	1.844255e+00	1.857425e+00	1.869806e+00	1.879987e+00	1.888313e+00	1.895329e+00	1.901328e+00	1.906736e+00	1.911528e+00	1.916128e+00	1.920985e+00	1.925983e+00	1.931986e+00	1.938317e+00	1.945848e+00	1.950774e+00	1.951224e+00	1.950695e+00	1.948325e+00	1.943939e+00	1.940892e+00	1.948385e+00	1.960255e+00	1.970094e+00	1.957141e+00	1.709667e+00	1.124293e+00	1.001597e+00	1.000013e+00	1.000000e+00	1.000000e+00	1.000000e+00	1.000000e+00	1.000000e+00	1.000000e+00	1.000000e+00	1.000000e+00	1.000000e+00	1.000000e+00	1.000000e+00	1.000000e+00	1.000000e+00	1.000000e+00	1.000000e+00	1.000000e+00	1.000000e+00	4.000000e+00	4.000000e+00	4.000000e+00	4.000000e+00	4.000000e+00	4.000000e+00	4.000000e+00	4.000000e+00	4.000000e+00	4.000000e+00	4.000000e+00	3.999999e+00	3.999992e+00	3.999904e+00	3.998870e+00	3.985901e+00	3.905531e+00	3.801863e+00	3.698202e+00	3.599436e+00	3.508657e+00	3.423864e+00	3.340507e+00	3.258535e+00	3.175074e+00	3.091755e+00	3.009618e+00	2.929061e+00	2.850061e+00	2.772535e+00	2.696421e+00	2.621661e+00	2.548237e+00	2.476135e+00	2.405337e+00	2.335794e+00	2.267447e+00	2.200274e+00	2.134241e+00	2.069355e+00	2.005541e+00	1.942783e+00	1.880936e+00	1.819731e+00	1.758848e+00	1.720493e+00	1.705476e+00	1.699530e+00	1.709704e+00	1.735960e+00	1.759021e+00	1.775960e+00	1.793618e+00	1.809905e+00	1.823607e+00	1.836005e+00	1.848232e+00	1.860237e+00	1.871846e+00	1.883334e+00	1.894819e+00	1.903927e+00	1.910210e+00	1.914783e+00	1.919121e+00	1.923324e+00	1.927449e+00	1.931182e+00	1.935290e+00	1.938634e+00	1.942080e+00	1.943727e+00	1.943963e+00	1.943905e+00	1.943448e+00	1.941772e+00	1.944283e+00	1.952667e+00	1.964876e+00	1.972540e+00	1.954532e+00	1.666835e+00	1.098208e+00	1.001069e+00	1.000009e+00	1.000000e+00	1.000000e+00	1.000000e+00	1.000000e+00	1.000000e+00	1.000000e+00	1.000000e+00	1.000000e+00	1.000000e+00	1.000000e+00	1.000000e+00	1.000000e+00	1.000000e+00	1.000000e+00	1.000000e+00	1.000000e+00	1.000000e+00	4.000000e+00	4.000000e+00	4.000000e+00	4.000000e+00	4.000000e+00	4.000000e+00	4.000000e+00	4.000000e+00	4.000000e+00	4.000000e+00	4.000000e+00	3.999999e+00	3.999984e+00	3.999807e+00	3.997612e+00	3.970099e+00	3.871422e+00	3.764142e+00	3.660846e+00	3.564116e+00	3.474840e+00	3.391505e+00	3.311329e+00	3.231699e+00	3.152443e+00	3.071629e+00	2.991031e+00	2.911577e+00	2.833561e+00	2.757004e+00	2.681822e+00	2.607947e+00	2.535345e+00	2.463993e+00	2.393889e+00	2.324998e+00	2.257267e+00	2.190669e+00	2.125170e+00	2.060784e+00	1.997480e+00	1.935168e+00	1.873879e+00	1.812886e+00	1.753372e+00	1.719433e+00	1.706566e+00	1.701905e+00	1.717528e+00	1.744641e+00	1.766118e+00	1.782245e+00	1.799320e+00	1.814805e+00	1.827581e+00	1.838919e+00	1.849801e+00	1.860113e+00	1.869896e+00	1.879883e+00	1.891743e+00	1.904156e+00	1.915423e+00	1.922125e+00	1.926856e+00	1.930223e+00	1.932452e+00	1.934290e+00	1.935813e+00	1.936462e+00	1.934750e+00	1.936094e+00	1.937630e+00	1.939170e+00	1.940485e+00	1.944791e+00	1.951629e+00	1.960314e+00	1.971128e+00	1.976150e+00	1.950249e+00	1.613193e+00	1.066741e+00	1.000589e+00	1.000006e+00	1.000000e+00	1.000000e+00	1.000000e+00	1.000000e+00	1.000000e+00	1.000000e+00	1.000000e+00	1.000000e+00	1.000000e+00	1.000000e+00	1.000000e+00	1.000000e+00	1.000000e+00	1.000000e+00	1.000000e+00	1.000000e+00	1.000000e+00	4.000000e+00	4.000000e+00	4.000000e+00	4.000000e+00	4.000000e+00	4.000000e+00	4.000000e+00	4.000000e+00	4.000000e+00	4.000000e+00	4.000000e+00	3.999997e+00	3.999963e+00	3.999537e+00	3.994226e+00	3.937381e+00	3.826643e+00	3.717823e+00	3.618495e+00	3.526330e+00	3.439539e+00	3.357199e+00	3.278504e+00	3.200963e+00	3.124351e+00	3.047491e+00	2.969287e+00	2.891350e+00	2.814464e+00	2.738940e+00	2.664772e+00	2.591887e+00	2.520228e+00	2.449750e+00	2.380457e+00	2.312326e+00	2.245320e+00	2.179412e+00	2.114568e+00	2.050787e+00	1.988102e+00	1.926318e+00	1.865710e+00	1.804741e+00	1.747549e+00	1.718444e+00	1.708028e+00	1.705809e+00	1.727308e+00	1.755113e+00	1.773222e+00	1.786976e+00	1.802565e+00	1.816987e+00	1.829037e+00	1.839473e+00	1.849246e+00	1.858314e+00	1.866587e+00	1.875076e+00	1.884394e+00	1.896012e+00	1.908864e+00	1.922936e+00	1.931829e+00	1.936313e+00	1.936838e+00	1.936935e+00	1.936809e+00	1.935944e+00	1.933537e+00	1.933585e+00	1.934851e+00	1.937327e+00	1.942966e+00	1.951294e+00	1.960501e+00	1.970040e+00	1.977524e+00	1.981418e+00	1.941986e+00	1.542318e+00	1.038543e+00	1.000384e+00	1.000004e+00	1.000000e+00	1.000000e+00	1.000000e+00	1.000000e+00	1.000000e+00	1.000000e+00	1.000000e+00	1.000000e+00	1.000000e+00	1.000000e+00	1.000000e+00	1.000000e+00	1.000000e+00	1.000000e+00	1.000000e+00	1.000000e+00	1.000000e+00	3.999999e+00	3.999999e+00	4.000000e+00	4.000000e+00	4.000000e+00	4.000000e+00	4.000000e+00	4.000000e+00	4.000000e+00	4.000000e+00	3.999999e+00	3.999991e+00	3.999894e+00	3.998653e+00	3.981113e+00	3.882625e+00	3.769353e+00	3.665849e+00	3.572950e+00	3.486054e+00	3.402342e+00	3.321114e+00	3.242922e+00	3.167187e+00	3.092243e+00	3.018301e+00	2.943765e+00	2.868146e+00	2.792816e+00	2.718480e+00	2.645381e+00	2.573539e+00	2.502893e+00	2.433382e+00	2.364998e+00	2.297719e+00	2.231530e+00	2.166407e+00	2.102320e+00	2.039244e+00	1.977274e+00	1.916129e+00	1.856234e+00	1.795264e+00	1.742015e+00	1.717882e+00	1.709694e+00	1.712341e+00	1.738275e+00	1.764767e+00	1.779141e+00	1.790024e+00	1.803631e+00	1.816868e+00	1.828474e+00	1.838427e+00	1.847353e+00	1.855416e+00	1.862785e+00	1.870066e+00	1.877508e+00	1.886055e+00	1.896583e+00	1.908989e+00	1.925368e+00	1.938983e+00	1.945267e+00	1.944353e+00	1.943388e+00	1.941167e+00	1.938353e+00	1.937242e+00	1.939510e+00	1.945427e+00	1.952936e+00	1.961819e+00	1.971964e+00	1.979850e+00	1.985004e+00	1.984083e+00	1.920342e+00	1.461757e+00	1.017917e+00	1.000248e+00	1.000002e+00	1.000000e+00	1.000000e+00	1.000000e+00	1.000000e+00	1.000000e+00	1.000000e+00	1.000000e+00	1.000000e+00	1.000000e+00	1.000000e+00	1.000000e+00	1.000000e+00	1.000000e+00	1.000000e+00	1.000000e+00	1.000000e+00	1.000000e+00	3.999994e+00	3.999998e+00	3.999999e+00	4.000000e+00	4.000000e+00	4.000000e+00	4.000000e+00	4.000000e+00	4.000000e+00	3.999999e+00	3.999996e+00	3.999965e+00	3.999590e+00	3.994546e+00	3.934790e+00	3.815915e+00	3.706125e+00	3.610959e+00	3.524749e+00	3.442797e+00	3.362483e+00	3.283153e+00	3.205625e+00	3.130474e+00	3.057278e+00	2.985032e+00	2.913564e+00	2.841488e+00	2.768412e+00	2.695680e+00	2.623815e+00	2.553067e+00	2.483467e+00	2.414965e+00	2.347547e+00	2.281182e+00	2.215875e+00	2.151606e+00	2.088357e+00	2.026085e+00	1.964908e+00	1.904569e+00	1.845298e+00	1.784867e+00	1.736960e+00	1.718309e+00	1.712023e+00	1.721542e+00	1.748196e+00	1.772674e+00	1.783783e+00	1.791951e+00	1.803359e+00	1.815244e+00	1.826454e+00	1.836336e+00	1.844800e+00	1.852132e+00	1.858785e+00	1.864720e+00	1.870521e+00	1.876503e+00	1.883930e+00	1.894887e+00	1.907207e+00	1.923784e+00	1.942409e+00	1.950876e+00	1.953159e+00	1.952548e+00	1.951908e+00	1.954372e+00	1.956568e+00	1.959288e+00	1.966202e+00	1.974975e+00	1.983415e+00	1.986540e+00	1.985959e+00	1.974911e+00	1.886838e+00	1.374002e+00	1.011985e+00	1.000149e+00	1.000001e+00	1.000000e+00	1.000000e+00	1.000000e+00	1.000000e+00	1.000000e+00	1.000000e+00	1.000000e+00	1.000000e+00	1.000000e+00	1.000000e+00	1.000000e+00	1.000000e+00	1.000000e+00	1.000000e+00	1.000000e+00	1.000000e+00	1.000000e+00	3.999974e+00	3.999990e+00	3.999996e+00	3.999998e+00	3.999999e+00	3.999999e+00	3.999999e+00	3.999999e+00	3.999997e+00	3.999991e+00	3.999965e+00	3.999764e+00	3.997527e+00	3.965670e+00	3.852384e+00	3.739878e+00	3.641134e+00	3.554079e+00	3.473747e+00	3.396274e+00	3.319512e+00	3.242820e+00	3.166920e+00	3.092495e+00	3.020165e+00	2.949246e+00	2.879449e+00	2.810274e+00	2.740623e+00	2.670244e+00	2.600054e+00	2.530603e+00	2.462125e+00	2.394668e+00	2.328247e+00	2.262834e+00	2.198447e+00	2.135075e+00	2.072712e+00	2.011330e+00	1.951000e+00	1.891668e+00	1.832957e+00	1.774214e+00	1.733103e+00	1.719502e+00	1.715671e+00	1.730617e+00	1.756324e+00	1.778614e+00	1.787537e+00	1.793696e+00	1.802698e+00	1.812968e+00	1.823631e+00	1.833573e+00	1.842147e+00	1.849537e+00	1.856262e+00	1.862367e+00	1.868364e+00	1.872807e+00	1.876841e+00	1.881251e+00	1.890341e+00	1.902550e+00	1.921490e+00	1.946657e+00	1.961758e+00	1.966911e+00	1.972321e+00	1.975006e+00	1.974811e+00	1.974964e+00	1.980574e+00	1.985501e+00	1.983876e+00	1.980706e+00	1.977461e+00	1.963874e+00	1.846892e+00	1.293308e+00	1.007766e+00	1.000085e+00	1.000001e+00	1.000000e+00	1.000000e+00	1.000000e+00	1.000000e+00	1.000000e+00	1.000000e+00	1.000000e+00	1.000000e+00	1.000000e+00	1.000000e+00	1.000000e+00	1.000000e+00	1.000000e+00	1.000000e+00	1.000000e+00	1.000000e+00	1.000000e+00	3.999886e+00	3.999954e+00	3.999980e+00	3.999991e+00	3.999995e+00	3.999995e+00	3.999992e+00	3.999984e+00	3.999963e+00	3.999894e+00	3.999590e+00	3.997527e+00	3.974778e+00	3.874432e+00	3.764193e+00	3.664286e+00	3.575394e+00	3.495275e+00	3.420152e+00	3.346800e+00	3.273594e+00	3.199987e+00	3.126433e+00	3.053430e+00	2.981776e+00	2.911837e+00	2.843359e+00	2.775836e+00	2.708832e+00	2.641515e+00	2.573721e+00	2.506049e+00	2.438947e+00	2.372654e+00	2.307286e+00	2.242857e+00	2.179418e+00	2.116967e+00	2.055514e+00	1.995084e+00	1.935653e+00	1.877486e+00	1.819473e+00	1.763694e+00	1.730762e+00	1.721539e+00	1.720764e+00	1.738269e+00	1.762408e+00	1.782877e+00	1.790863e+00	1.795875e+00	1.803385e+00	1.812225e+00	1.822550e+00	1.833734e+00	1.844170e+00	1.853332e+00	1.861502e+00	1.868397e+00	1.874762e+00	1.879886e+00	1.883048e+00	1.885172e+00	1.886594e+00	1.891321e+00	1.900016e+00	1.919450e+00	1.949400e+00	1.972203e+00	1.985312e+00	1.992817e+00	1.992456e+00	1.991955e+00	1.990855e+00	1.984821e+00	1.978102e+00	1.972465e+00	1.968820e+00	1.953616e+00	1.801121e+00	1.213610e+00	1.004468e+00	1.000042e+00	1.000000e+00	1.000000e+00	1.000000e+00	1.000000e+00	1.000000e+00	1.000000e+00	1.000000e+00	1.000000e+00	1.000000e+00	1.000000e+00	1.000000e+00	1.000000e+00	1.000000e+00	1.000000e+00	1.000000e+00	1.000000e+00	1.000000e+00	1.000000e+00	3.999504e+00	3.999794e+00	3.999902e+00	3.999946e+00	3.999957e+00	3.999943e+00	3.999904e+00	3.999807e+00	3.999537e+00	3.998653e+00	3.994546e+00	3.965670e+00	3.874432e+00	3.773441e+00	3.677339e+00	3.589144e+00	3.509104e+00	3.435102e+00	3.364541e+00	3.294999e+00	3.225189e+00	3.154767e+00	3.083860e+00	3.013116e+00	2.942760e+00	2.873611e+00	2.805903e+00	2.739597e+00	2.674193e+00	2.609331e+00	2.544255e+00	2.478955e+00	2.413721e+00	2.348906e+00	2.284769e+00	2.221420e+00	2.158979e+00	2.097478e+00	2.036954e+00	1.977515e+00	1.919080e+00	1.862097e+00	1.805255e+00	1.754220e+00	1.730150e+00	1.723488e+00	1.725404e+00	1.744187e+00	1.766633e+00	1.785984e+00	1.794220e+00	1.799463e+00	1.807392e+00	1.817273e+00	1.828509e+00	1.839865e+00	1.850909e+00	1.860894e+00	1.869815e+00	1.877311e+00	1.883729e+00	1.889425e+00	1.893442e+00	1.895985e+00	1.897018e+00	1.897714e+00	1.900146e+00	1.907403e+00	1.923165e+00	1.952354e+00	1.979196e+00	1.995989e+00	2.005250e+00	2.002024e+00	1.992996e+00	1.983118e+00	1.973727e+00	1.966560e+00	1.962594e+00	1.945559e+00	1.731380e+00	1.146838e+00	1.002155e+00	1.000018e+00	1.000000e+00	1.000000e+00	1.000000e+00	1.000000e+00	1.000000e+00	1.000000e+00	1.000000e+00	1.000000e+00	1.000000e+00	1.000000e+00	1.000000e+00	1.000000e+00	1.000000e+00	1.000000e+00	1.000000e+00	1.000000e+00	1.000000e+00	1.000000e+00	3.997831e+00	3.999008e+00	3.999413e+00	3.999566e+00	3.999542e+00	3.999343e+00	3.998870e+00	3.997612e+00	3.994226e+00	3.981113e+00	3.934790e+00	3.852384e+00	3.764193e+00	3.677339e+00	3.593723e+00	3.515686e+00	3.442962e+00	3.374148e+00	3.307672e+00	3.241591e+00	3.174910e+00	3.107471e+00	3.039472e+00	2.971134e+00	2.902786e+00	2.834856e+00	2.767998e+00	2.702368e+00	2.637980e+00	2.574612e+00	2.511734e+00	2.448904e+00	2.385964e+00	2.323093e+00	2.260546e+00	2.198518e+00	2.137223e+00	2.076759e+00	2.017230e+00	1.958812e+00	1.901531e+00	1.845600e+00	1.790823e+00	1.747299e+00	1.730584e+00	1.725432e+00	1.729795e+00	1.748760e+00	1.769670e+00	1.788408e+00	1.798811e+00	1.806459e+00	1.816082e+00	1.826425e+00	1.837477e+00	1.848397e+00	1.858631e+00	1.868514e+00	1.877875e+00	1.886148e+00	1.892930e+00	1.898900e+00	1.904284e+00	1.907906e+00	1.909796e+00	1.910424e+00	1.911044e+00	1.914454e+00	1.921398e+00	1.930421e+00	1.949801e+00	1.974215e+00	1.990286e+00	1.995934e+00	1.994028e+00	1.982548e+00	1.972232e+00	1.966120e+00	1.964833e+00	1.942312e+00	1.638639e+00	1.084839e+00	1.000803e+00	1.000007e+00	1.000000e+00	1.000000e+00	1.000000e+00	1.000000e+00	1.000000e+00	1.000000e+00	1.000000e+00	1.000000e+00	1.000000e+00	1.000000e+00	1.000000e+00	1.000000e+00	1.000000e+00	1.000000e+00	1.000000e+00	1.000000e+00	1.000000e+00	1.000000e+00	3.990463e+00	3.994419e+00	3.995510e+00	3.995675