# vtk DataFile Version 3.0
vtk output
ASCII
DATASET STRUCTURED_GRID
DIMENSIONS 102 102 1
POINTS 10404 double
0.000000e+00	0.000000e+00	0.0	1.980198e+00	0.000000e+00	0.0	3.960396e+00	0.000000e+00	0.0	5.940594e+00	0.000000e+00	0.0	7.920792e+00	0.000000e+00	0.0	9.900990e+00	0.000000e+00	0.0	1.188119e+01	0.000000e+00	0.0	1.386139e+01	0.000000e+00	0.0	1.584158e+01	0.000000e+00	0.0	1.782178e+01	0.000000e+00	0.0	1.980198e+01	0.000000e+00	0.0	2.178218e+01	0.000000e+00	0.0	2.376238e+01	0.000000e+00	0.0	2.574257e+01	0.000000e+00	0.0	2.772277e+01	0.000000e+00	0.0	2.970297e+01	0.000000e+00	0.0	3.168317e+01	0.000000e+00	0.0	3.366337e+01	0.000000e+00	0.0	3.564356e+01	0.000000e+00	0.0	3.762376e+01	0.000000e+00	0.0	3.960396e+01	0.000000e+00	0.0	4.158416e+01	0.000000e+00	0.0	4.356436e+01	0.000000e+00	0.0	4.554455e+01	0.000000e+00	0.0	4.752475e+01	0.000000e+00	0.0	4.950495e+01	0.000000e+00	0.0	5.148515e+01	0.000000e+00	0.0	5.346535e+01	0.000000e+00	0.0	5.544554e+01	0.000000e+00	0.0	5.742574e+01	0.000000e+00	0.0	5.940594e+01	0.000000e+00	0.0	6.138614e+01	0.000000e+00	0.0	6.336634e+01	0.000000e+00	0.0	6.534653e+01	0.000000e+00	0.0	6.732673e+01	0.000000e+00	0.0	6.930693e+01	0.000000e+00	0.0	7.128713e+01	0.000000e+00	0.0	7.326733e+01	0.000000e+00	0.0	7.524752e+01	0.000000e+00	0.0	7.722772e+01	0.000000e+00	0.0	7.920792e+01	0.000000e+00	0.0	8.118812e+01	0.000000e+00	0.0	8.316832e+01	0.000000e+00	0.0	8.514851e+01	0.000000e+00	0.0	8.712871e+01	0.000000e+00	0.0	8.910891e+01	0.000000e+00	0.0	9.108911e+01	0.000000e+00	0.0	9.306931e+01	0.000000e+00	0.0	9.504950e+01	0.000000e+00	0.0	9.702970e+01	0.000000e+00	0.0	9.900990e+01	0.000000e+00	0.0	1.009901e+02	0.000000e+00	0.0	1.029703e+02	0.000000e+00	0.0	1.049505e+02	0.000000e+00	0.0	1.069307e+02	0.000000e+00	0.0	1.089109e+02	0.000000e+00	0.0	1.108911e+02	0.000000e+00	0.0	1.128713e+02	0.000000e+00	0.0	1.148515e+02	0.000000e+00	0.0	1.168317e+02	0.000000e+00	0.0	1.188119e+02	0.000000e+00	0.0	1.207921e+02	0.000000e+00	0.0	1.227723e+02	0.000000e+00	0.0	1.247525e+02	0.000000e+00	0.0	1.267327e+02	0.000000e+00	0.0	1.287129e+02	0.000000e+00	0.0	1.306931e+02	0.000000e+00	0.0	1.326733e+02	0.000000e+00	0.0	1.346535e+02	0.000000e+00	0.0	1.366337e+02	0.000000e+00	0.0	1.386139e+02	0.000000e+00	0.0	1.405941e+02	0.000000e+00	0.0	1.425743e+02	0.000000e+00	0.0	1.445545e+02	0.000000e+00	0.0	1.465347e+02	0.000000e+00	0.0	1.485149e+02	0.000000e+00	0.0	1.504950e+02	0.000000e+00	0.0	1.524752e+02	0.000000e+00	0.0	1.544554e+02	0.000000e+00	0.0	1.564356e+02	0.000000e+00	0.0	1.584158e+02	0.000000e+00	0.0	1.603960e+02	0.000000e+00	0.0	1.623762e+02	0.000000e+00	0.0	1.643564e+02	0.000000e+00	0.0	1.663366e+02	0.000000e+00	0.0	1.683168e+02	0.000000e+00	0.0	1.702970e+02	0.000000e+00	0.0	1.722772e+02	0.000000e+00	0.0	1.742574e+02	0.000000e+00	0.0	1.762376e+02	0.000000e+00	0.0	1.782178e+02	0.000000e+00	0.0	1.801980e+02	0.000000e+00	0.0	1.821782e+02	0.000000e+00	0.0	1.841584e+02	0.000000e+00	0.0	1.861386e+02	0.000000e+00	0.0	1.881188e+02	0.000000e+00	0.0	1.900990e+02	0.000000e+00	0.0	1.920792e+02	0.000000e+00	0.0	1.940594e+02	0.000000e+00	0.0	1.960396e+02	0.000000e+00	0.0	1.980198e+02	0.000000e+00	0.0	2.000000e+02	0.000000e+00	0.0	0.000000e+00	1.980198e+00	0.0	1.980198e+00	1.980198e+00	0.0	3.960396e+00	1.980198e+00	0.0	5.940594e+00	1.980198e+00	0.0	7.920792e+00	1.980198e+00	0.0	9.900990e+00	1.980198e+00	0.0	1.188119e+01	1.980198e+00	0.0	1.386139e+01	1.980198e+00	0.0	1.584158e+01	1.980198e+00	0.0	1.782178e+01	1.980198e+00	0.0	1.980198e+01	1.980198e+00	0.0	2.178218e+01	1.980198e+00	0.0	2.376238e+01	1.980198e+00	0.0	2.574257e+01	1.980198e+00	0.0	2.772277e+01	1.980198e+00	0.0	2.970297e+01	1.980198e+00	0.0	3.168317e+01	1.980198e+00	0.0	3.366337e+01	1.980198e+00	0.0	3.564356e+01	1.980198e+00	0.0	3.762376e+01	1.980198e+00	0.0	3.960396e+01	1.980198e+00	0.0	4.158416e+01	1.980198e+00	0.0	4.356436e+01	1.980198e+00	0.0	4.554455e+01	1.980198e+00	0.0	4.752475e+01	1.980198e+00	0.0	4.950495e+01	1.980198e+00	0.0	5.148515e+01	1.980198e+00	0.0	5.346535e+01	1.980198e+00	0.0	5.544554e+01	1.980198e+00	0.0	5.742574e+01	1.980198e+00	0.0	5.940594e+01	1.980198e+00	0.0	6.138614e+01	1.980198e+00	0.0	6.336634e+01	1.980198e+00	0.0	6.534653e+01	1.980198e+00	0.0	6.732673e+01	1.980198e+00	0.0	6.930693e+01	1.980198e+00	0.0	7.128713e+01	1.980198e+00	0.0	7.326733e+01	1.980198e+00	0.0	7.524752e+01	1.980198e+00	0.0	7.722772e+01	1.980198e+00	0.0	7.920792e+01	1.980198e+00	0.0	8.118812e+01	1.980198e+00	0.0	8.316832e+01	1.980198e+00	0.0	8.514851e+01	1.980198e+00	0.0	8.712871e+01	1.980198e+00	0.0	8.910891e+01	1.980198e+00	0.0	9.108911e+01	1.980198e+00	0.0	9.306931e+01	1.980198e+00	0.0	9.504950e+01	1.980198e+00	0.0	9.702970e+01	1.980198e+00	0.0	9.900990e+01	1.980198e+00	0.0	1.009901e+02	1.980198e+00	0.0	1.029703e+02	1.980198e+00	0.0	1.049505e+02	1.980198e+00	0.0	1.069307e+02	1.980198e+00	0.0	1.089109e+02	1.980198e+00	0.0	1.108911e+02	1.980198e+00	0.0	1.128713e+02	1.980198e+00	0.0	1.148515e+02	1.980198e+00	0.0	1.168317e+02	1.980198e+00	0.0	1.188119e+02	1.980198e+00	0.0	1.207921e+02	1.980198e+00	0.0	1.227723e+02	1.980198e+00	0.0	1.247525e+02	1.980198e+00	0.0	1.267327e+02	1.980198e+00	0.0	1.287129e+02	1.980198e+00	0.0	1.306931e+02	1.980198e+00	0.0	1.326733e+02	1.980198e+00	0.0	1.346535e+02	1.980198e+00	0.0	1.366337e+02	1.980198e+00	0.0	1.386139e+02	1.980198e+00	0.0	1.405941e+02	1.980198e+00	0.0	1.425743e+02	1.980198e+00	0.0	1.445545e+02	1.980198e+00	0.0	1.465347e+02	1.980198e+00	0.0	1.485149e+02	1.980198e+00	0.0	1.504950e+02	1.980198e+00	0.0	1.524752e+02	1.980198e+00	0.0	1.544554e+02	1.980198e+00	0.0	1.564356e+02	1.980198e+00	0.0	1.584158e+02	1.980198e+00	0.0	1.603960e+02	1.980198e+00	0.0	1.623762e+02	1.980198e+00	0.0	1.643564e+02	1.980198e+00	0.0	1.663366e+02	1.980198e+00	0.0	1.683168e+02	1.980198e+00	0.0	1.702970e+02	1.980198e+00	0.0	1.722772e+02	1.980198e+00	0.0	1.742574e+02	1.980198e+00	0.0	1.762376e+02	1.980198e+00	0.0	1.782178e+02	1.980198e+00	0.0	1.801980e+02	1.980198e+00	0.0	1.821782e+02	1.980198e+00	0.0	1.841584e+02	1.980198e+00	0.0	1.861386e+02	1.980198e+00	0.0	1.881188e+02	1.980198e+00	0.0	1.900990e+02	1.980198e+00	0.0	1.920792e+02	1.980198e+00	0.0	1.940594e+02	1.980198e+00	0.0	1.960396e+02	1.980198e+00	0.0	1.980198e+02	1.980198e+00	0.0	2.000000e+02	1.980198e+00	0.0	0.000000e+00	3.960396e+00	0.0	1.980198e+00	3.960396e+00	0.0	3.960396e+00	3.960396e+00	0.0	5.940594e+00	3.960396e+00	0.0	7.920792e+00	3.960396e+00	0.0	9.900990e+00	3.960396e+00	0.0	1.188119e+01	3.960396e+00	0.0	1.386139e+01	3.960396e+00	0.0	1.584158e+01	3.960396e+00	0.0	1.782178e+01	3.960396e+00	0.0	1.980198e+01	3.960396e+00	0.0	2.178218e+01	3.960396e+00	0.0	2.376238e+01	3.960396e+00	0.0	2.574257e+01	3.960396e+00	0.0	2.772277e+01	3.960396e+00	0.0	2.970297e+01	3.960396e+00	0.0	3.168317e+01	3.960396e+00	0.0	3.366337e+01	3.960396e+00	0.0	3.564356e+01	3.960396e+00	0.0	3.762376e+01	3.960396e+00	0.0	3.960396e+01	3.960396e+00	0.0	4.158416e+01	3.960396e+00	0.0	4.356436e+01	3.960396e+00	0.0	4.554455e+01	3.960396e+00	0.0	4.752475e+01	3.960396e+00	0.0	4.950495e+01	3.960396e+00	0.0	5.148515e+01	3.960396e+00	0.0	5.346535e+01	3.960396e+00	0.0	5.544554e+01	3.960396e+00	0.0	5.742574e+01	3.960396e+00	0.0	5.940594e+01	3.960396e+00	0.0	6.138614e+01	3.960396e+00	0.0	6.336634e+01	3.960396e+00	0.0	6.534653e+01	3.960396e+00	0.0	6.732673e+01	3.960396e+00	0.0	6.930693e+01	3.960396e+00	0.0	7.128713e+01	3.960396e+00	0.0	7.326733e+01	3.960396e+00	0.0	7.524752e+01	3.960396e+00	0.0	7.722772e+01	3.960396e+00	0.0	7.920792e+01	3.960396e+00	0.0	8.118812e+01	3.960396e+00	0.0	8.316832e+01	3.960396e+00	0.0	8.514851e+01	3.960396e+00	0.0	8.712871e+01	3.960396e+00	0.0	8.910891e+01	3.960396e+00	0.0	9.108911e+01	3.960396e+00	0.0	9.306931e+01	3.960396e+00	0.0	9.504950e+01	3.960396e+00	0.0	9.702970e+01	3.960396e+00	0.0	9.900990e+01	3.960396e+00	0.0	1.009901e+02	3.960396e+00	0.0	1.029703e+02	3.960396e+00	0.0	1.049505e+02	3.960396e+00	0.0	1.069307e+02	3.960396e+00	0.0	1.089109e+02	3.960396e+00	0.0	1.108911e+02	3.960396e+00	0.0	1.128713e+02	3.960396e+00	0.0	1.148515e+02	3.960396e+00	0.0	1.168317e+02	3.960396e+00	0.0	1.188119e+02	3.960396e+00	0.0	1.207921e+02	3.960396e+00	0.0	1.227723e+02	3.960396e+00	0.0	1.247525e+02	3.960396e+00	0.0	1.267327e+02	3.960396e+00	0.0	1.287129e+02	3.960396e+00	0.0	1.306931e+02	3.960396e+00	0.0	1.326733e+02	3.960396e+00	0.0	1.346535e+02	3.960396e+00	0.0	1.366337e+02	3.960396e+00	0.0	1.386139e+02	3.960396e+00	0.0	1.405941e+02	3.960396e+00	0.0	1.425743e+02	3.960396e+00	0.0	1.445545e+02	3.960396e+00	0.0	1.465347e+02	3.960396e+00	0.0	1.485149e+02	3.960396e+00	0.0	1.504950e+02	3.960396e+00	0.0	1.524752e+02	3.960396e+00	0.0	1.544554e+02	3.960396e+00	0.0	1.564356e+02	3.960396e+00	0.0	1.584158e+02	3.960396e+00	0.0	1.603960e+02	3.960396e+00	0.0	1.623762e+02	3.960396e+00	0.0	1.643564e+02	3.960396e+00	0.0	1.663366e+02	3.960396e+00	0.0	1.683168e+02	3.960396e+00	0.0	1.702970e+02	3.960396e+00	0.0	1.722772e+02	3.960396e+00	0.0	1.742574e+02	3.960396e+00	0.0	1.762376e+02	3.960396e+00	0.0	1.782178e+02	3.960396e+00	0.0	1.801980e+02	3.960396e+00	0.0	1.821782e+02	3.960396e+00	0.0	1.841584e+02	3.960396e+00	0.0	1.861386e+02	3.960396e+00	0.0	1.881188e+02	3.960396e+00	0.0	1.900990e+02	3.960396e+00	0.0	1.920792e+02	3.960396e+00	0.0	1.940594e+02	3.960396e+00	0.0	1.960396e+02	3.960396e+00	0.0	1.980198e+02	3.960396e+00	0.0	2.000000e+02	3.960396e+00	0.0	0.000000e+00	5.940594e+00	0.0	1.980198e+00	5.940594e+00	0.0	3.960396e+00	5.940594e+00	0.0	5.940594e+00	5.940594e+00	0.0	7.920792e+00	5.940594e+00	0.0	9.900990e+00	5.940594e+00	0.0	1.188119e+01	5.940594e+00	0.0	1.386139e+01	5.940594e+00	0.0	1.584158e+01	5.940594e+00	0.0	1.782178e+01	5.940594e+00	0.0	1.980198e+01	5.940594e+00	0.0	2.178218e+01	5.940594e+00	0.0	2.376238e+01	5.940594e+00	0.0	2.574257e+01	5.940594e+00	0.0	2.772277e+01	5.940594e+00	0.0	2.970297e+01	5.940594e+00	0.0	3.168317e+01	5.940594e+00	0.0	3.366337e+01	5.940594e+00	0.0	3.564356e+01	5.940594e+00	0.0	3.762376e+01	5.940594e+00	0.0	3.960396e+01	5.940594e+00	0.0	4.158416e+01	5.940594e+00	0.0	4.356436e+01	5.940594e+00	0.0	4.554455e+01	5.940594
[...]
POINT_DATA 10404

SCALARS Height double 1
LOOKUP_TABLE default
4.000000e+00	4.000000e+00	4.000000e+00	4.000000e+00	4.000000e+00	4.000000e+00	4.000000e+00	4.000000e+00	4.000000e+00	4.000000e+00	4.000000e+00	4.000000e+00	4.000000e+00	4.000000e+00	4.000000e+00	4.000000e+00	4.000000e+00	4.000000e+00	3.999998e+00	3.999992e+00	3.999966e+00	3.999852e+00	3.999365e+00	3.997264e+00	3.988104e+00	3.949665e+00	3.867957e+00	3.766610e+00	3.656929e+00	3.543418e+00	3.428806e+00	3.314889e+00	3.202751e+00	3.092817e+00	2.985147e+00	2.879661e+00	2.776326e+00	2.675045e+00	2.575863e+00	2.478752e+00	2.383667e+00	2.290470e+00	2.199002e+00	2.109173e+00	2.020831e+00	1.933111e+00	1.869171e+00	1.843178e+00	1.833360e+00	1.832279e+00	1.854145e+00	1.876531e+00	1.887374e+00	1.897295e+00	1.909467e+00	1.921419e+00	1.933528e+00	1.945014e+00	1.955477e+00	1.964342e+00	1.971761e+00	1.979010e+00	1.985182e+00	1.988626e+00	1.989079e+00	1.987738e+00	1.985464e+00	1.982124e+00	1.979819e+00	1.982998e+00	1.995378e+00	2.012476e+00	2.006239e+00	1.864160e+00	1.345311e+00	1.022943e+00	1.000645e+00	1.000015e+00	1.000000e+00	1.000000e+00	1.000000e+00	1.000000e+00	1.000000e+00	1.000000e+00	1.000000e+00	1.000000e+00	1.000000e+00	1.000000e+00	1.000000e+00	1.000000e+00	1.000000e+00	1.000000e+00	1.000000e+00	1.000000e+00	1.000000e+00	1.000000e+00	1.000000e+00	1.000000e+00	1.000000e+00	1.000000e+00	1.000000e+00	1.000000e+00	4.000000e+00	4.000000e+00	4.000000e+00	4.000000e+00	4.000000e+00	4.000000e+00	4.000000e+00	4.000000e+00	4.000000e+00	4.000000e+00	4.000000e+00	4.000000e+00	4.000000e+00	4.000000e+00	4.000000e+00	4.000000e+00	4.000000e+00	4.000000e+00	3.999999e+00	3.999997e+00	3.999986e+00	3.999939e+00	3.999731e+00	3.998729e+00	3.992953e+00	3.952835e+00	3.864892e+00	3.764372e+00	3.656323e+00	3.543944e+00	3.430046e+00	3.316947e+00	3.205503e+00	3.096191e+00	2.989161e+00	2.884140e+00	2.781266e+00	2.680424e+00	2.581610e+00	2.484806e+00	2.389945e+00	2.296901e+00	2.205568e+00	2.115850e+00	2.027614e+00	1.939929e+00	1.876357e+00	1.850340e+00	1.840440e+00	1.838816e+00	1.860513e+00	1.882952e+00	1.893906e+00	1.903419e+00	1.914104e+00	1.924393e+00	1.935226e+00	1.945971e+00	1.956167e+00	1.965032e+00	1.972275e+00	1.979332e+00	1.985703e+00	1.990460e+00	1.992406e+00	1.992138e+00	1.991108e+00	1.989137e+00	1.989165e+00	1.993835e+00	2.005775e+00	2.018828e+00	2.016764e+00	1.891637e+00	1.282976e+00	1.006855e+00	1.000079e+00	1.000001e+00	1.000000e+00	1.000000e+00	1.000000e+00	1.000000e+00	1.000000e+00	1.000000e+00	1.000000e+00	1.000000e+00	1.000000e+00	1.000000e+00	1.000000e+00	1.000000e+00	1.000000e+00	1.000000e+00	1.000000e+00	1.000000e+00	1.000000e+00	1.000000e+00	1.000000e+00	1.000000e+00	1.000000e+00	1.000000e+00	1.000000e+00	1.000000e+00	4.000000e+00	4.000000e+00	4.000000e+00	4.000000e+00	4.000000e+00	4.000000e+00	4.000000e+00	4.000000e+00	4.000000e+00	4.000000e+00	4.000000e+00	4.000000e+00	4.000000e+00	4.000000e+00	4.000000e+00	4.000000e+00	4.000000e+00	4.000000e+00	4.000000e+00	3.999999e+00	3.999994e+00	3.999973e+00	3.999870e+00	3.999250e+00	3.994386e+00	3.951842e+00	3.855808e+00	3.752444e+00	3.643174e+00	3.531806e+00	3.417641e+00	3.303615e+00	3.191701e+00	3.081908e+00	2.974312e+00	2.869107e+00	2.766055e+00	2.665144e+00	2.566263e+00	2.469403e+00	2.374473e+00	2.281431e+00	2.190132e+00	2.100433e+00	2.012102e+00	1.924570e+00	1.863134e+00	1.838004e+00	1.828443e+00	1.828257e+00	1.850165e+00	1.872129e+00	1.884691e+00	1.896143e+00	1.907344e+00	1.916702e+00	1.925679e+00	1.934275e+00	1.942539e+00	1.949775e+00	1.956904e+00	1.964307e+00	1.971644e+00	1.979522e+00	1.987045e+00	1.992387e+00	1.994721e+00	1.996871e+00	1.999741e+00	2.003166e+00	2.009268e+00	2.015947e+00	2.011329e+00	1.873898e+00	1.255898e+00	1.005556e+00	1.000051e+00	1.000000e+00	1.000000e+00	1.000000e+00	1.000000e+00	1.000000e+00	1.000000e+00	1.000000e+00	1.000000e+00	1.000000e+00	1.000000e+00	1.000000e+00	1.000000e+00	1.000000e+00	1.000000e+00	1.000000e+00	1.000000e+00	1.000000e+00	1.000000e+00	1.000000e+00	1.000000e+00	1.000000e+00	1.000000e+00	1.000000e+00	1.000000e+00	1.000000e+00	4.000000e+00	4.000000e+00	4.000000e+00	4.000000e+00	4.000000e+00	4.000000e+00	4.000000e+00	4.000000e+00	4.000000e+00	4.000000e+00	4.000000e+00	4.000000e+00	4.000000e+00	4.000000e+00	4.000000e+00	4.000000e+00	4.000000e+00	4.000000e+00	4.000000e+00	4.000000e+00	3.999998e+00	3.999989e+00	3.999930e+00	3.999463e+00	3.994910e+00	3.949478e+00	3.845335e+00	3.737061e+00	3.628143e+00	3.517482e+00	3.406920e+00	3.295047e+00	3.183996e+00	3.075240e+00	2.968716e+00	2.864530e+00	2.762443e+00	2.662367e+00	2.564267e+00	2.468075e+00	2.373704e+00	2.281061e+00	2.190067e+00	2.100610e+00	2.012407e+00	1.925422e+00	1.866079e+00	1.841691e+00	1.832148e+00	1.832774e+00	1.854357e+00	1.874924e+00	1.888060e+00	1.900306e+00	1.910850e+00	1.919107e+00	1.926855e+00	1.934283e+00	1.941402e+00	1.947862e+00	1.953645e+00	1.959187e+00	1.964920e+00	1.973513e+00	1.983267e+00	1.994762e+00	2.005151e+00	2.013918e+00	2.018504e+00	2.020632e+00	2.023974e+00	2.025272e+00	2.012561e+00	1.847426e+00	1.226485e+00	1.004760e+00	1.000044e+00	1.000000e+00	1.000000e+00	1.000000e+00	1.000000e+00	1.000000e+00	1.000000e+00	1.000000e+00	1.000000e+00	1.000000e+00	1.000000e+00	1.000000e+00	1.000000e+00	1.000000e+00	1.000000e+00	1.000000e+00	1.000000e+00	1.000000e+00	1.000000e+00	1.000000e+00	1.000000e+00	1.000000e+00	1.000000e+00	1.000000e+00	1.000000e+00	1.000000e+00	4.000000e+00	4.000000e+00	4.000000e+00	4.000000e+00	4.000000e+00	4.000000e+00	4.000000e+00	4.000000e+00	4.000000e+00	4.000000e+00	4.000000e+00	4.000000e+00	4.000000e+00	4.000000e+00	4.000000e+00	4.000000e+00	4.000000e+00	4.000000e+00	4.000000e+00	4.000000e+00	3.999999e+00	3.999994e+00	3.999950e+00	3.999500e+00	3.994410e+00	3.943367e+00	3.831446e+00	3.717963e+00	3.607326e+00	3.498686e+00	3.389722e+00	3.281412e+00	3.172173e+00	3.064131e+00	2.958369e+00	2.854759e+00	2.753318e+00	2.653846e+00	2.556316e+00	2.460648e+00	2.366735e+00	2.274500e+00	2.183850e+00	2.094665e+00	2.006678e+00	1.920290e+00	1.864254e+00	1.841237e+00	1.831985e+00	1.834444e+00	1.855424e+00	1.873712e+00	1.886638e+00	1.899443e+00	1.910420e+00	1.918912e+00	1.926749e+00	1.934271e+00	1.941371e+00	1.948019e+00	1.954253e+00	1.960302e+00	1.965463e+00	1.973811e+00	1.984201e+00	1.996766e+00	2.009810e+00	2.023397e+00	2.035542e+00	2.039495e+00	2.037717e+00	2.028903e+00	2.004760e+00	1.810379e+00	1.201068e+00	1.003880e+00	1.000035e+00	1.000000e+00	1.000000e+00	1.000000e+00	1.000000e+00	1.000000e+00	1.000000e+00	1.000000e+00	1.000000e+00	1.000000e+00	1.000000e+00	1.000000e+00	1.000000e+00	1.000000e+00	1.000000e+00	1.000000e+00	1.000000e+00	1.000000e+00	1.000000e+00	1.000000e+00	1.000000e+00	1.000000e+00	1.000000e+00	1.000000e+00	1.000000e+00	1.000000e+00	4.000000e+00	4.000000e+00	4.000000e+00	4.000000e+00	4.000000e+00	4.000000e+00	4.000000e+00	4.000000e+00	4.000000e+00	4.000000e+00	4.000000e+00	4.000000e+00	4.000000e+00	4.000000e+00	4.000000e+00	4.000000e+00	4.000000e+00	4.000000e+00	4.000000e+00	4.000000e+00	3.999999e+00	3.999995e+00	3.999943e+00	3.999369e+00	3.992860e+00	3.930519e+00	3.813591e+00	3.696539e+00	3.583573e+00	3.475050e+00	3.368375e+00	3.262392e+00	3.157104e+00	3.050863e+00	2.945913e+00	2.842958e+00	2.742075e+00	2.643205e+00	2.546288e+00	2.451204e+00	2.357841e+00	2.266119e+00	2.175944e+00	2.087144e+00	1.999575e+00	1.913850e+00	1.862508e+00	1.841367e+00	1.832547e+00	1.838931e+00	1.859793e+00	1.873144e+00	1.884052e+00	1.896802e+00	1.908603e+00	1.918087e+00	1.926509e+00	1.934590e+00	1.942162e+00	1.948927e+00	1.955740e+00	1.962795e+00	1.970184e+00	1.978093e+00	1.986732e+00	1.998272e+00	2.011711e+00	2.029633e+00	2.039607e+00	2.040832e+00	2.036377e+00	2.026410e+00	1.997510e+00	1.776100e+00	1.174190e+00	1.002967e+00	1.000026e+00	1.000000e+00	1.000000e+00	1.000000e+00	1.000000e+00	1.000000e+00	1.000000e+00	1.000000e+00	1.000000e+00	1.000000e+00	1.000000e+00	1.000000e+00	1.000000e+00	1.000000e+00	1.000000e+00	1.000000e+00	1.000000e+00	1.000000e+00	1.000000e+00	1.000000e+00	1.000000e+00	1.000000e+00	1.000000e+00	1.000000e+00	1.000000e+00	1.000000e+00	4.000000e+00	4.000000e+00	4.000000e+00	4.000000e+00	4.000000e+00	4.000000e+00	4.000000e+00	4.000000e+00	4.000000e+00	4.000000e+00	4.000000e+00	4.000000e+00	4.000000e+00	4.000000e+00	4.000000e+00	4.000000e+00	4.000000e+00	4.000000e+00	4.000000e+00	4.000000e+00	3.999999e+00	3.999993e+00	3.999919e+00	3.999060e+00	3.989567e+00	3.908319e+00	3.790951e+00	3.672870e+00	3.557835e+00	3.448288e+00	3.343081e+00	3.239341e+00	3.136690e+00	3.034507e+00	2.931235e+00	2.829237e+00	2.728924e+00	2.630656e+00	2.534334e+00	2.439857e+00	2.347098e+00	2.255960e+00	2.166363e+00	2.078085e+00	1.991069e+00	1.906376e+00	1.860609e+00	1.841875e+00	1.834137e+00	1.845441e+00	1.865518e+00	1.873644e+00	1.881029e+00	1.892692e+00	1.904969e+00	1.916054e+00	1.925981e+00	1.935405e+00	1.944254e+00	1.951616e+00	1.959595e+00	1.968033e+00	1.976075e+00	1.982634e+00	1.987960e+00	1.998067e+00	2.009855e+00	2.018354e+00	2.024833e+00	2.026284e+00	2.026174e+00	2.021805e+00	1.995497e+00	1.746431e+00	1.142900e+00	1.001993e+00	1.000017e+00	1.000000e+00	1.000000e+00	1.000000e+00	1.000000e+00	1.000000e+00	1.000000e+00	1.000000e+00	1.000000e+00	1.000000e+00	1.000000e+00	1.000000e+00	1.000000e+00	1.000000e+00	1.000000e+00	1.000000e+00	1.000000e+00	1.000000e+00	1.000000e+00	1.000000e+00	1.000000e+00	1.000000e+00	1.000000e+00	1.000000e+00	1.000000e+00	1.000000e+00	4.000000e+00	4.000000e+00	4.000000e+00	4.000000e+00	4.000000e+00	4.000000e+00	4.000000e+00	4.000000e+00	4.000000e+00	4.000000e+00	4.000000e+00	4.000000e+00	4.000000e+00	4.000000e+00	4.000000e+00	4.000000e+00	4.000000e+00	4.000000e+00	4.000000e+00	4.000000e+00	3.999999e+00	3.999988e+00	3.999861e+00	3.998385e+00	3.979226e+00	3.880584e+00	3.763130e+00	3.646000e+00	3.530613e+00	3.419941e+00	3.314628e+00	3.212730e+00	3.111999e+00	3.012348e+00	2.913250e+00	2.813127e+00	2.713869e+00	2.616281e+00	2.520605e+00	2.426768e+00	2.334652e+00	2.244165e+00	2.155233e+00	2.067620e+00	1.980958e+00	1.898601e+00	1.858278e+00	1.842740e+00	1.837039e+00	1.852968e+00	1.871803e+00	1.877110e+00	1.881435e+00	1.889896e+00	1.901304e+00	1.913702e+00	1.925802e+00	1.936631e+00	1.946804e+00	1.955612e+00	1.964232e+00	1.972449e+00	1.980013e+00	1.985147e+00	1.990685e+00	1.993322e+00	1.997549e+00	2.002274e+00	2.003022e+00	2.006416e+00	2.011749e+00	2.014162e+00	1.994150e+00	1.710779e+00	1.111664e+00	1.001269e+00	1.000011e+00	1.000000e+00	1.000000e+00	1.000000e+00	1.000000e+00	1.000000e+00	1.000000e+00	1.000000e+00	1.000000e+00	1.000000e+00	1.000000e+00	1.000000e+00	1.000000e+00	1.000000e+00	1.000000e+00	1.000000e+00	1.000000e+00	1.000000e+00	1.000000e+00	1.000000e+00	1.000000e+00	1.000000e+00	1.000000e+00	1.000000e+00	1.000000e+00	1.000000e+00	4.000000e+00	4.000000e+00	4.000000e+00	4.000000e+00	4.000000e+00	4.000000e+00	4.000000e+00	4.000000e+00	4.000000e+00	4.000000e+00	4.000000e+00	4.000000e+00	4.000000e+00	4.000000e+00	4.000000e+00	4.000000e+00	4.000000e+00	4.000000e+00	4.000000e+00	4.000000e+00	3.999998e+00	3.999978e+00	3.999733e+00	3.996718e+00	3.959618e+00	3.847845e+00	3.730468e+00	3.614540e+00	3.501153e+00	3.390569e+00	3.284785e+00	3.182955e+00	3.084171e+00	2.985946e+00	2.889188e+00	2.793339e+00	2.696357e+00	2.600030e+00	2.505177e+00	2.411995e+00	2.320580e+00	2.230806e+00	2.142646e+00	2.055866e+00	1.969536e+00	1.891263e+00	1.855738e+00	1.843115e+00	1.840136e+00	1.860190e+00	1.879008e+00	1.883719e+00	1.888124e+00	1.896190e+00	1.905266e+00	1.915194e+00	1.926478e+00	1.938095e+00	1.948985e+00	1.958411e+00	1.967294e+00	1.974561e+00	1.980904e+00	1.986082e+00	1.988789e+00	1.988361e+00	1.987920e+00	1.987180e+00	1.987130e+00	1.992177e+00	2.001964e+00	2.013168e+00	1.994201e+00	1.658087e+00	1.075263e+00	1.000615e+00	1.000006e+00	1.000000e+00	1.000000e+00	1.000000e+00	1.000000e+00	1.000000e+00	1.000000e+00	1.000000e+00	1.000000e+00	1.000000e+00	1.000000e+00	1.000000e+00	1.000000e+00	1.000000e+00	1.000000e+00	1.000000e+00	1.000000e+00	1.000000e+00	1.000000e+00	1.000000e+00	1.000000e+00	1.000000e+00	1.000000e+00	1.000000e+00	1.000000e+00	1.000000e+00	4.000000e+00	4.000000e+00	4.000000e+00	4.000000e+00	4.000000e+00	4.000000e+00	4.000000e+00	4.000000e+00	4.000000e+00	4.000000e+00	4.000000e+00	4.000000e+00	4.000000e+00	4.000000e+00	4.000000e+00	4.000000e+00	4.000000e+00	4.000000e+00	4.000000e+00	4.000000e+00	3.999996e+00	3.999953e+00	3.999413e+00	3.992842e+00	3.926344e+00	3.810244e+00	3.692959e+00	3.578553e+00	3.467946e+00	3.359717e+00	3.254214e+00	3.151870e+00	3.052848e+00	2.956677e+00	2.861142e+00	2.767059e+00	2.674380e+00	2.581204e+00	2.487729e+00	2.395576e+00	2.304992e+00	2.216036e+00	2.128723e+00	2.042987e+00	1.957031e+00	1.884727e+00	1.853922e+00	1.843586e+00	1.843797e+00	1.867747e+00	1.888434e+00	1.895496e+00	1.901685e+00	1.909441e+00	1.916844e+00	1.924075e+00	1.931918e+00	1.940456e+00	1.949849e+00	1.958464e+00	1.965790e+00	1.970857e+00	1.974661e+00	1.978548e+00	1.982167e+00	1.983906e+00	1.984075e+00	1.981667e+00	1.980621e+00	1.985692e+00	2.004381e+00	2.020256e+00	1.989369e+00	1.581009e+00	1.040532e+00	1.000360e+00	1.000003e+00	1.000000e+00	1.000000e+00	1.000000e+00	1.000000e+00	1.000000e+00	1.000000e+00	1.000000e+00	1.000000e+00	1.000000e+00	1.000000e+00	1.000000e+00	1.000000e+00	1.000000e+00	1.000000e+00	1.000000e+00	1.000000e+00	1.000000e+00	1.000000e+00	1.000000e+00	1.000000e+00	1.000000e+00	1.000000e+00	1.000000e+00	1.000000e+00	1.000000e+00	4.000000e+00	4.000000e+00	4.000000e+00	4.000000e+00	4.000000e+00	4.000000e+00	4.000000e+00	4.000000e+00	4.000000e+00	4.000000e+00	4.000000e+00	4.000000e+00	4.000000e+00	4.000000e+00	4.000000e+00	4.000000e+00	4.000000e+00	4.000000e+00	4.000000e+00	3.999999e+00	3.999991e+00	3.999888e+00	3.998609e+00	3.981291e+00	3.883700e+00	3.766055e+00	3.650567e+00	3.538494e+00	3.431157e+00	3.326111e+00	3.222704e+00	3.120804e+00	3.021279e+00	2.924476e+00	2.830393e+00	2.737563e+00	2.646192e+00	2.556283e+00	2.466892e+00	2.376993e+00	2.287610e+00	2.199772e+00	2.113501e+00	2.029087e+00	1.943912e+00	1.879162e+00	1.853484e+00	1.845369e+00	1.850321e+00	1.877495e+00	1.901609e+00	1.911289e+00	1.918071e+00	1.925665e+00	1.931862e+00	1.937496e+00	1.943360e+00	1.948715e+00	1.952926e+00	1.957701e+00	1.962333e+00	1.966277e+00	1.969337e+00	1.973536e+00	1.977374e+00	1.980445e+00	1.980655e+00	1.978267e+00	1.982477e+00	1.995532e+00	2.018329e+00	2.027711e+00	1.975577e+00	1.476160e+00	1.016418e+00	1.000191e+00	1.000002e+00	1.000000e+00	1.000000e+00	1.000000e+00	1.000000e+00	1.000000e+00	1.000000e+00	1.000000e+00	1.000000e+00	1.000000e+00	1.000000e+00	1.000000e+00	1.000000e+00	1.000000e+00	1.000000e+00	1.000000e+00	1.000000e+00	1.000000e+00	1.000000e+00	1.000000e+00	1.000000e+00	1.000000e+00	1.000000e+00	1.000000e+00	1.000000e+00	1.000000e+00	4.000000e+00	4.000000e+00	4.000000e+00	4.000000e+00	4.000000e+00	4.000000e+00	4.000000e+00	4.000000e+00	4.000000e+00	4.000000e+00	4.000000e+00	4.000000e+00	4.000000e+00	4.000000e+00	4.000000e+00	4.000000e+00	4.000000e+00	4.000000e+00	4.000000e+00	3.999998e+00	3.999977e+00	3.999709e+00	3.996212e+00	3.953074e+00	3.836325e+00	3.716699e+00	3.603200e+00	3.494881e+00	3.391009e+00	3.289326e+00	3.188789e+00	3.088623e+00	2.989662e+00	2.892627e+00	2.798176e+00	2.706120e+00	2.615704e+00	2.526844e+00	2.439406e+00	2.353023e+00	2.266957e+00	2.181058e+00	2.096439e+00	2.013754e+00	1.930654e+00	1.874865e+00	1.854930e+00	1.849173e+00	1.860964e+00	1.889739e+00	1.914836e+00	1.926473e+00	1.933851e+00	1.941403e+00	1.947107e+00	1.952174e+00	1.956977e+00	1.961140e+00	1.962293e+00	1.964192e+00	1.966676e+00	1.969089e+00	1.971911e+00	1.975752e+00	1.977806e+00	1.980378e+00	1.982548e+00	1.988372e+00	2.001080e+00	2.014220e+00	2.030795e+00	2.033275e+00	1.935872e+00	1.346237e+00	1.008945e+00	1.000090e+00	1.000001e+00	1.000000e+00	1.000000e+00	1.000000e+00	1.000000e+00	1.000000e+00	1.000000e+00	1.000000e+00	1.000000e+00	1.000000e+00	1.000000e+00	1.000000e+00	1.000000e+00	1.000000e+00	1.000000e+00	1.000000e+00	1.000000e+00	1.000000e+00	1.000000e+00	1.000000e+00	1.000000e+00	1.000000e+00	1.000000e+00	1.000000e+00	1.000000e+00	1.000000e+00	4.000000e+00	4.000000e+00	4.000000e+00	4.000000e+00	4.000000e+00	4.000000e+00	4.000000e+00	4.000000e+00	4.000000e+00	4.000000e+00	4.000000e+00	4.000000e+00	4.000000e+00	4.000000e+00	4.000000e+00	4.000000e+00	4.000000e+00	4.000000e+00	4.000000e+00	3.999995e+00	3.999934e+00	3.999148e+00	3.989546e+00	3.901868e+00	3.781133e+00	3.662934e+00	3.552784e+00	3.448548e+00	3.347913e+00	3.249212e+00	3.151513e+00	3.054159e+00	2.957111e+00	2.860645e+00	2.765898e+00	2.673805e+00	2.583937e+00	2.495908e+00	2.409526e+00	2.324517e+00	2.240801e+00	2.158197e+00	2.076263e+00	1.995968e+00	1.917773e+00	1.872106e+00	1.858104e+00	1.855806e+00	1.873090e+00	1.899320e+00	1.923224e+00	1.936007e+00	1.945012e+00	1.953755e+00	1.960754e+00	1.966223e+00	1.971502e+00	1.976056e+00	1.976854e+00	1.977266e+00	1.978653e+00	1.980068e+00	1.981765e+00	1.985085e+00	1.987367e+00	1.991064e+00	1.997800e+00	2.006845e+00	2.019059e+00	2.032575e+00	2.038684e+00	2.030601e+00	1.869182e+00	1.224120e+00	1.004365e+00	1.000037e+00	1.000000e+00	1.000000e+00	1.000000e+00	1.000000e+00	1.000000e+00	1.000000e+00	1.000000e+00	1.000000e+00	1.000000e+00	1.000000e+00	1.000000e+00	1.000000e+00	1.000000e+00	1.000000e+00	1.000000e+00	1.000000e+00	1.000000e+00	1.000000e+00	1.000000e+00	1.000000e+00	1.000000e+00	1.000000e+00	1.000000e+00	1.000000e+00	1.000000e+00	1.000000e+00	4.000000e+00	4.000000e+00	4.000000e+00	4.000000e+00	4.000000e+00	4.000000e+00	4.000000e+00	4.000000e+00	4.000000e+00	4.000000e+00	4.000000e+00	4.000000e+00	4.000000e+00	4.000000e+00	4.000000e+00	4.000000e+00	4.000000e+00	4.000000e+00	3.999999e+00	3.999984e+00	3.999791e+00	3.997188e+00	3.961923e+00	3.842136e+00	3.719139e+00	3.605766e+00	3.500497e+00	3.400110e+00	3.302272e+00	3.206009e+00	3.110842e+00	3.016640e+00	2.921915e+00	2.827970e+00	2.734156e+00	2.641784e+00	2.551684e+00	2.464048e+00	2.378299e+00	2.294287e+00	2.211909e+00	2.131059e+00	2.052238e+00	1.974501e+00	1.905605e+00	1.872116e+00	1.863306e+00	1.864607e+00	1.881903e+00	1.904012e+00	1.925418e+00	1.938463e+00	1.946740e+00	1.954748e+00	1.964253e+00	1.974842e+00	1.984386e+00	1.990755e+00	1.993626e+00	1.994521e+00	1.995457e+00	1.996537e+00	1.997456e+00	1.998736e+00	2.000572e+00	2.004708e+00	2.013071e+00	2.024634e+00	2.035946e+00	2.039963e+00	2.037736e+00	2.016994e+00	1.761849e+00	1.137517e+00	1.001776e+00	1.000014e+00	1.000000e+00	1.000000e+00	1.000000e+00	1.000000e+00	1.000000e+00	1.000000e+00	1.000000e+00	1.000000e+00	1.000000e+00	1.000000e+00	1.000000e+00	1.000000e+00	1.000000e+00	1.000000e+00	1.000000e+00	1.000000e+00	1.000000e+00	1.000000e+00	1.000000e+00	1.000000e+00	1.000000e+00	1.000000e+00	1.000000e+00	1.000000e+00	1.000000e+00	1.000000e+00	4.000000e+00	4.000000e+00	4.000000e+00	4.000000e+00	4.000000e+00	4.000000e+00	4.000000e+00	4.000000e+00	4.000000e+00	4.000000e+00	4.000000e+00	4.000000e+00	4.000000e+00	4.000000e+00	4.000000e+00	4.000000e+00	4.000000e+00	4.000000e+00	3.999996e+00	3.999943e+00	3.999227e+00	3.989932e+00	3.899429e+00	3.773000e+00	3.653955e+00	3.546765e+00	3.446484e+00	3.349606e+00	3.254271e+00	3.160096e+00	3.067051e+00	2.975009e+00	2.883801e+00	2.792261e+00	2.701300e+00	2.610298e+00	2.520584e+00	2.432700e+00	2.346983e+00	2.263299e+00	2.181634e+00	2.101883e+00	2.025029e+00	1.950286e+00	1.895780e+00	1.873459e+00	1.867118e+00	1.871143e+00	1.885693e+00	1.903138e+00	1.921157e+00	1.934483e+00	1.942381e+00	1.949507e+00	1.957142e+00	1.967613e+00	1.980682e+00	1.995334e+00	2.006071e+00	2.012248e+00	2.013299e+00	2.014313e+00	2.014919e+00	2.014178e+00	2.016867e+00	2.022859e+00	2.031702e+00	2.035769e+00	2.035537e+00	2.035203e+00	2.031080e+00	1.995243e+00	1.639642e+00	1.067820e+00	1.000576e+00	1.000006e+00	1.000000e+00	1.000000e+00	1.000000e+00	1.000000e+00	1.000000e+00	1.000000e+00	1.000000e+00	1.000000e+00	1.000000e+00	1.000000e+00	1.000000e+00	1.000000e+00	1.000000e+00	1.000000e+00	1.000000e+00	1.000000e+00	1.000000e+00	1.000000e+00	1.000000e+00	1.000000e+00	1.000000e+00	1.000000e+00	1.000000e+00	1.000000e+00	1.000000e+00	1.000000e+00	4.000000e+00	4.000000e+00	4.000000e+00	4.000000