# vtk DataFile Version 3.0
vtk output
ASCII
DATASET STRUCTURED_GRID
DIMENSIONS 102 102 1
POINTS 10404 double
0.000000e+00	0.000000e+00	0.0	1.980198e+00	0.000000e+00	0.0	3.960396e+00	0.000000e+00	0.0	5.940594e+00	0.000000e+00	0.0	7.920792e+00	0.000000e+00	0.0	9.900990e+00	0.000000e+00	0.0	1.188119e+01	0.000000e+00	0.0	1.386139e+01	0.000000e+00	0.0	1.584158e+01	0.000000e+00	0.0	1.782178e+01	0.000000e+00	0.0	1.980198e+01	0.000000e+00	0.0	2.178218e+01	0.000000e+00	0.0	2.376238e+01	0.000000e+00	0.0	2.574257e+01	0.000000e+00	0.0	2.772277e+01	0.000000e+00	0.0	2.970297e+01	0.000000e+00	0.0	3.168317e+01	0.000000e+00	0.0	3.366337e+01	0.000000e+00	0.0	3.564356e+01	0.000000e+00	0.0	3.762376e+01	0.000000e+00	0.0	3.960396e+01	0.000000e+00	0.0	4.158416e+01	0.000000e+00	0.0	4.356436e+01	0.000000e+00	0.0	4.554455e+01	0.000000e+00	0.0	4.752475e+01	0.000000e+00	0.0	4.950495e+01	0.000000e+00	0.0	5.148515e+01	0.000000e+00	0.0	5.346535e+01	0.000000e+00	0.0	5.544554e+01	0.000000e+00	0.0	5.742574e+01	0.000000e+00	0.0	5.940594e+01	0.000000e+00	0.0	6.138614e+01	0.000000e+00	0.0	6.336634e+01	0.000000e+00	0.0	6.534653e+01	0.000000e+00	0.0	6.732673e+01	0.000000e+00	0.0	6.930693e+01	0.000000e+00	0.0	7.128713e+01	0.000000e+00	0.0	7.326733e+01	0.000000e+00	0.0	7.524752e+01	0.000000e+00	0.0	7.722772e+01	0.000000e+00	0.0	7.920792e+01	0.000000e+00	0.0	8.118812e+01	0.000000e+00	0.0	8.316832e+01	0.000000e+00	0.0	8.514851e+01	0.000000e+00	0.0	8.712871e+01	0.000000e+00	0.0	8.910891e+01	0.000000e+00	0.0	9.108911e+01	0.000000e+00	0.0	9.306931e+01	0.000000e+00	0.0	9.504950e+01	0.000000e+00	0.0	9.702970e+01	0.000000e+00	0.0	9.900990e+01	0.000000e+00	0.0	1.009901e+02	0.000000e+00	0.0	1.029703e+02	0.000000e+00	0.0	1.049505e+02	0.000000e+00	0.0	1.069307e+02	0.000000e+00	0.0	1.089109e+02	0.000000e+00	0.0	1.108911e+02	0.000000e+00	0.0	1.128713e+02	0.000000e+00	0.0	1.148515e+02	0.000000e+00	0.0	1.168317e+02	0.000000e+00	0.0	1.188119e+02	0.000000e+00	0.0	1.207921e+02	0.000000e+00	0.0	1.227723e+02	0.000000e+00	0.0	1.247525e+02	0.000000e+00	0.0	1.267327e+02	0.000000e+00	0.0	1.287129e+02	0.000000e+00	0.0	1.306931e+02	0.000000e+00	0.0	1.326733e+02	0.000000e+00	0.0	1.346535e+02	0.000000e+00	0.0	1.366337e+02	0.000000e+00	0.0	1.386139e+02	0.000000e+00	0.0	1.405941e+02	0.000000e+00	0.0	1.425743e+02	0.000000e+00	0.0	1.445545e+02	0.000000e+00	0.0	1.465347e+02	0.000000e+00	0.0	1.485149e+02	0.000000e+00	0.0	1.504950e+02	0.000000e+00	0.0	1.524752e+02	0.000000e+00	0.0	1.544554e+02	0.000000e+00	0.0	1.564356e+02	0.000000e+00	0.0	1.584158e+02	0.000000e+00	0.0	1.603960e+02	0.000000e+00	0.0	1.623762e+02	0.000000e+00	0.0	1.643564e+02	0.000000e+00	0.0	1.663366e+02	0.000000e+00	0.0	1.683168e+02	0.000000e+00	0.0	1.702970e+02	0.000000e+00	0.0	1.722772e+02	0.000000e+00	0.0	1.742574e+02	0.000000e+00	0.0	1.762376e+02	0.000000e+00	0.0	1.782178e+02	0.000000e+00	0.0	1.801980e+02	0.000000e+00	0.0	1.821782e+02	0.000000e+00	0.0	1.841584e+02	0.000000e+00	0.0	1.861386e+02	0.000000e+00	0.0	1.881188e+02	0.000000e+00	0.0	1.900990e+02	0.000000e+00	0.0	1.920792e+02	0.000000e+00	0.0	1.940594e+02	0.000000e+00	0.0	1.960396e+02	0.000000e+00	0.0	1.980198e+02	0.000000e+00	0.0	2.000000e+02	0.000000e+00	0.0	0.000000e+00	1.980198e+00	0.0	1.980198e+00	1.980198e+00	0.0	3.960396e+00	1.980198e+00	0.0	5.940594e+00	1.980198e+00	0.0	7.920792e+00	1.980198e+00	0.0	9.900990e+00	1.980198e+00	0.0	1.188119e+01	1.980198e+00	0.0	1.386139e+01	1.980198e+00	0.0	1.584158e+01	1.980198e+00	0.0	1.782178e+01	1.980198e+00	0.0	1.980198e+01	1.980198e+00	0.0	2.178218e+01	1.980198e+00	0.0	2.376238e+01	1.980198e+00	0.0	2.574257e+01	1.980198e+00	0.0	2.772277e+01	1.980198e+00	0.0	2.970297e+01	1.980198e+00	0.0	3.168317e+01	1.980198e+00	0.0	3.366337e+01	1.980198e+00	0.0	3.564356e+01	1.980198e+00	0.0	3.762376e+01	1.980198e+00	0.0	3.960396e+01	1.980198e+00	0.0	4.158416e+01	1.980198e+00	0.0	4.356436e+01	1.980198e+00	0.0	4.554455e+01	1.980198e+00	0.0	4.752475e+01	1.980198e+00	0.0	4.950495e+01	1.980198e+00	0.0	5.148515e+01	1.980198e+00	0.0	5.346535e+01	1.980198e+00	0.0	5.544554e+01	1.980198e+00	0.0	5.742574e+01	1.980198e+00	0.0	5.940594e+01	1.980198e+00	0.0	6.138614e+01	1.980198e+00	0.0	6.336634e+01	1.980198e+00	0.0	6.534653e+01	1.980198e+00	0.0	6.732673e+01	1.980198e+00	0.0	6.930693e+01	1.980198e+00	0.0	7.128713e+01	1.980198e+00	0.0	7.326733e+01	1.980198e+00	0.0	7.524752e+01	1.980198e+00	0.0	7.722772e+01	1.980198e+00	0.0	7.920792e+01	1.980198e+00	0.0	8.118812e+01	1.980198e+00	0.0	8.316832e+01	1.980198e+00	0.0	8.514851e+01	1.980198e+00	0.0	8.712871e+01	1.980198e+00	0.0	8.910891e+01	1.980198e+00	0.0	9.108911e+01	1.980198e+00	0.0	9.306931e+01	1.980198e+00	0.0	9.504950e+01	1.980198e+00	0.0	9.702970e+01	1.980198e+00	0.0	9.900990e+01	1.980198e+00	0.0	1.009901e+02	1.980198e+00	0.0	1.029703e+02	1.980198e+00	0.0	1.049505e+02	1.980198e+00	0.0	1.069307e+02	1.980198e+00	0.0	1.089109e+02	1.980198e+00	0.0	1.108911e+02	1.980198e+00	0.0	1.128713e+02	1.980198e+00	0.0	1.148515e+02	1.980198e+00	0.0	1.168317e+02	1.980198e+00	0.0	1.188119e+02	1.980198e+00	0.0	1.207921e+02	1.980198e+00	0.0	1.227723e+02	1.980198e+00	0.0	1.247525e+02	1.980198e+00	0.0	1.267327e+02	1.980198e+00	0.0	1.287129e+02	1.980198e+00	0.0	1.306931e+02	1.980198e+00	0.0	1.326733e+02	1.980198e+00	0.0	1.346535e+02	1.980198e+00	0.0	1.366337e+02	1.980198e+00	0.0	1.386139e+02	1.980198e+00	0.0	1.405941e+02	1.980198e+00	0.0	1.425743e+02	1.980198e+00	0.0	1.445545e+02	1.980198e+00	0.0	1.465347e+02	1.980198e+00	0.0	1.485149e+02	1.980198e+00	0.0	1.504950e+02	1.980198e+00	0.0	1.524752e+02	1.980198e+00	0.0	1.544554e+02	1.980198e+00	0.0	1.564356e+02	1.980198e+00	0.0	1.584158e+02	1.980198e+00	0.0	1.603960e+02	1.980198e+00	0.0	1.623762e+02	1.980198e+00	0.0	1.643564e+02	1.980198e+00	0.0	1.663366e+02	1.980198e+00	0.0	1.683168e+02	1.980198e+00	0.0	1.702970e+02	1.980198e+00	0.0	1.722772e+02	1.980198e+00	0.0	1.742574e+02	1.980198e+00	0.0	1.762376e+02	1.980198e+00	0.0	1.782178e+02	1.980198e+00	0.0	1.801980e+02	1.980198e+00	0.0	1.821782e+02	1.980198e+00	0.0	1.841584e+02	1.980198e+00	0.0	1.861386e+02	1.980198e+00	0.0	1.881188e+02	1.980198e+00	0.0	1.900990e+02	1.980198e+00	0.0	1.920792e+02	1.980198e+00	0.0	1.940594e+02	1.980198e+00	0.0	1.960396e+02	1.980198e+00	0.0	1.980198e+02	1.980198e+00	0.0	2.000000e+02	1.980198e+00	0.0	0.000000e+00	3.960396e+00	0.0	1.980198e+00	3.960396e+00	0.0	3.960396e+00	3.960396e+00	0.0	5.940594e+00	3.960396e+00	0.0	7.920792e+00	3.960396e+00	0.0	9.900990e+00	3.960396e+00	0.0	1.188119e+01	3.960396e+00	0.0	1.386139e+01	3.960396e+00	0.0	1.584158e+01	3.960396e+00	0.0	1.782178e+01	3.960396e+00	0.0	1.980198e+01	3.960396e+00	0.0	2.178218e+01	3.960396e+00	0.0	2.376238e+01	3.960396e+00	0.0	2.574257e+01	3.960396e+00	0.0	2.772277e+01	3.960396e+00	0.0	2.970297e+01	3.960396e+00	0.0	3.168317e+01	3.960396e+00	0.0	3.366337e+01	3.960396e+00	0.0	3.564356e+01	3.960396e+00	0.0	3.762376e+01	3.960396e+00	0.0	3.960396e+01	3.960396e+00	0.0	4.158416e+01	3.960396e+00	0.0	4.356436e+01	3.960396e+00	0.0	4.554455e+01	3.960396e+00	0.0	4.752475e+01	3.960396e+00	0.0	4.950495e+01	3.960396e+00	0.0	5.148515e+01	3.960396e+00	0.0	5.346535e+01	3.960396e+00	0.0	5.544554e+01	3.960396e+00	0.0	5.742574e+01	3.960396e+00	0.0	5.940594e+01	3.960396e+00	0.0	6.138614e+01	3.960396e+00	0.0	6.336634e+01	3.960396e+00	0.0	6.534653e+01	3.960396e+00	0.0	6.732673e+01	3.960396e+00	0.0	6.930693e+01	3.960396e+00	0.0	7.128713e+01	3.960396e+00	0.0	7.326733e+01	3.960396e+00	0.0	7.524752e+01	3.960396e+00	0.0	7.722772e+01	3.960396e+00	0.0	7.920792e+01	3.960396e+00	0.0	8.118812e+01	3.960396e+00	0.0	8.316832e+01	3.960396e+00	0.0	8.514851e+01	3.960396e+00	0.0	8.712871e+01	3.960396e+00	0.0	8.910891e+01	3.960396e+00	0.0	9.108911e+01	3.960396e+00	0.0	9.306931e+01	3.960396e+00	0.0	9.504950e+01	3.960396e+00	0.0	9.702970e+01	3.960396e+00	0.0	9.900990e+01	3.960396e+00	0.0	1.009901e+02	3.960396e+00	0.0	1.029703e+02	3.960396e+00	0.0	1.049505e+02	3.960396e+00	0.0	1.069307e+02	3.960396e+00	0.0	1.089109e+02	3.960396e+00	0.0	1.108911e+02	3.960396e+00	0.0	1.128713e+02	3.960396e+00	0.0	1.148515e+02	3.960396e+00	0.0	1.168317e+02	3.960396e+00	0.0	1.188119e+02	3.960396e+00	0.0	1.207921e+02	3.960396e+00	0.0	1.227723e+02	3.960396e+00	0.0	1.247525e+02	3.960396e+00	0.0	1.267327e+02	3.960396e+00	0.0	1.287129e+02	3.960396e+00	0.0	1.306931e+02	3.960396e+00	0.0	1.326733e+02	3.960396e+00	0.0	1.346535e+02	3.960396e+00	0.0	1.366337e+02	3.960396e+00	0.0	1.386139e+02	3.960396e+00	0.0	1.405941e+02	3.960396e+00	0.0	1.425743e+02	3.960396e+00	0.0	1.445545e+02	3.960396e+00	0.0	1.465347e+02	3.960396e+00	0.0	1.485149e+02	3.960396e+00	0.0	1.504950e+02	3.960396e+00	0.0	1.524752e+02	3.960396e+00	0.0	1.544554e+02	3.960396e+00	0.0	1.564356e+02	3.960396e+00	0.0	1.584158e+02	3.960396e+00	0.0	1.603960e+02	3.960396e+00	0.0	1.623762e+02	3.960396e+00	0.0	1.643564e+02	3.960396e+00	0.0	1.663366e+02	3.960396e+00	0.0	1.683168e+02	3.960396e+00	0.0	1.702970e+02	3.960396e+00	0.0	1.722772e+02	3.960396e+00	0.0	1.742574e+02	3.960396e+00	0.0	1.762376e+02	3.960396e+00	0.0	1.782178e+02	3.960396e+00	0.0	1.801980e+02	3.960396e+00	0.0	1.821782e+02	3.960396e+00	0.0	1.841584e+02	3.960396e+00	0.0	1.861386e+02	3.960396e+00	0.0	1.881188e+02	3.960396e+00	0.0	1.900990e+02	3.960396e+00	0.0	1.920792e+02	3.960396e+00	0.0	1.940594e+02	3.960396e+00	0.0	1.960396e+02	3.960396e+00	0.0	1.980198e+02	3.960396e+00	0.0	2.000000e+02	3.960396e+00	0.0	0.000000e+00	5.940594e+00	0.0	1.980198e+00	5.940594e+00	0.0	3.960396e+00	5.940594e+00	0.0	5.940594e+00	5.940594e+00	0.0	7.920792e+00	5.940594e+00	0.0	9.900990e+00	5.940594e+00	0.0	1.188119e+01	5.940594e+00	0.0	1.386139e+01	5.940594e+00	0.0	1.584158e+01	5.940594e+00	0.0	1.782178e+01	5.940594e+00	0.0	1.980198e+01	5.940594e+00	0.0	2.178218e+01	5.940594e+00	0.0	2.376238e+01	5.940594e+00	0.0	2.574257e+01	5.940594e+00	0.0	2.772277e+01	5.940594e+00	0.0	2.970297e+01	5.940594e+00	0.0	3.168317e+01	5.940594e+00	0.0	3.366337e+01	5.940594e+00	0.0	3.564356e+01	5.940594e+00	0.0	3.762376e+01	5.940594e+00	0.0	3.960396e+01	5.940594e+00	0.0	4.158416e+01	5.940594e+00	0.0	4.356436e+01	5.940594e+00	0.0	4.554455e+01	5.940594
[...]
POINT_DATA 10404

SCALARS Height double 1
LOOKUP_TABLE default
4.000000e+00	4.000000e+00	4.000000e+00	4.000000e+00	4.000000e+00	4.000000e+00	4.000000e+00	4.000000e+00	4.000000e+00	4.000000e+00	4.000000e+00	4.000000e+00	4.000000e+00	4.000000e+00	4.000000e+00	4.000000e+00	3.999999e+00	3.999997e+00	3.999989e+00	3.999953e+00	3.999796e+00	3.999120e+00	3.996186e+00	3.983559e+00	3.934200e+00	3.848861e+00	3.748013e+00	3.640446e+00	3.529845e+00	3.418664e+00	3.308481e+00	3.200117e+00	3.094024e+00	2.990219e+00	2.888567e+00	2.789040e+00	2.691566e+00	2.596107e+00	2.502640e+00	2.411066e+00	2.321296e+00	2.233238e+00	2.146807e+00	2.061881e+00	1.978305e+00	1.895514e+00	1.841033e+00	1.819323e+00	1.810951e+00	1.812937e+00	1.836620e+00	1.858667e+00	1.869395e+00	1.881174e+00	1.894461e+00	1.907123e+00	1.919556e+00	1.931046e+00	1.941392e+00	1.950256e+00	1.958159e+00	1.966834e+00	1.975832e+00	1.985185e+00	1.992784e+00	1.996033e+00	1.995541e+00	1.992052e+00	1.986839e+00	1.981264e+00	1.980166e+00	1.988509e+00	1.998892e+00	1.995204e+00	1.883258e+00	1.408824e+00	1.031825e+00	1.000991e+00	1.000024e+00	1.000001e+00	1.000000e+00	1.000000e+00	1.000000e+00	1.000000e+00	1.000000e+00	1.000000e+00	1.000000e+00	1.000000e+00	1.000000e+00	1.000000e+00	1.000000e+00	1.000000e+00	1.000000e+00	1.000000e+00	1.000000e+00	1.000000e+00	1.000000e+00	1.000000e+00	1.000000e+00	1.000000e+00	1.000000e+00	1.000000e+00	4.000000e+00	4.000000e+00	4.000000e+00	4.000000e+00	4.000000e+00	4.000000e+00	4.000000e+00	4.000000e+00	4.000000e+00	4.000000e+00	4.000000e+00	4.000000e+00	4.000000e+00	4.000000e+00	4.000000e+00	4.000000e+00	4.000000e+00	3.999999e+00	3.999996e+00	3.999981e+00	3.999916e+00	3.999623e+00	3.998157e+00	3.989412e+00	3.934694e+00	3.845950e+00	3.746141e+00	3.640176e+00	3.530653e+00	3.420125e+00	3.310751e+00	3.203255e+00	3.097773e+00	2.994526e+00	2.893406e+00	2.794349e+00	2.697283e+00	2.602171e+00	2.508973e+00	2.417598e+00	2.328025e+00	2.240149e+00	2.153872e+00	2.069063e+00	1.985578e+00	1.902920e+00	1.848695e+00	1.826964e+00	1.818506e+00	1.819886e+00	1.843491e+00	1.865483e+00	1.876047e+00	1.886806e+00	1.898570e+00	1.909978e+00	1.921764e+00	1.933201e+00	1.943647e+00	1.952702e+00	1.960808e+00	1.969232e+00	1.977633e+00	1.985951e+00	1.993029e+00	1.997182e+00	1.998559e+00	1.997187e+00	1.992460e+00	1.988232e+00	1.987202e+00	1.996148e+00	2.004731e+00	2.003767e+00	1.910902e+00	1.356537e+00	1.010721e+00	1.000141e+00	1.000002e+00	1.000000e+00	1.000000e+00	1.000000e+00	1.000000e+00	1.000000e+00	1.000000e+00	1.000000e+00	1.000000e+00	1.000000e+00	1.000000e+00	1.000000e+00	1.000000e+00	1.000000e+00	1.000000e+00	1.000000e+00	1.000000e+00	1.000000e+00	1.000000e+00	1.000000e+00	1.000000e+00	1.000000e+00	1.000000e+00	1.000000e+00	4.000000e+00	4.000000e+00	4.000000e+00	4.000000e+00	4.000000e+00	4.000000e+00	4.000000e+00	4.000000e+00	4.000000e+00	4.000000e+00	4.000000e+00	4.000000e+00	4.000000e+00	4.000000e+00	4.000000e+00	4.000000e+00	4.000000e+00	4.000000e+00	3.999998e+00	3.999992e+00	3.999963e+00	3.999811e+00	3.998834e+00	3.991000e+00	3.931580e+00	3.835680e+00	3.733859e+00	3.626933e+00	3.518108e+00	3.407346e+00	3.297192e+00	3.189231e+00	3.083600e+00	2.980090e+00	2.878866e+00	2.779759e+00	2.682689e+00	2.587578e+00	2.494381e+00	2.403131e+00	2.313676e+00	2.225908e+00	2.139702e+00	2.054940e+00	1.971478e+00	1.889121e+00	1.836832e+00	1.815807e+00	1.807534e+00	1.810437e+00	1.833981e+00	1.855499e+00	1.867382e+00	1.878850e+00	1.889964e+00	1.899543e+00	1.909183e+00	1.918714e+00	1.928121e+00	1.936626e+00	1.944786e+00	1.952782e+00	1.960178e+00	1.966751e+00	1.974619e+00	1.981752e+00	1.987773e+00	1.992556e+00	1.993990e+00	1.994935e+00	1.997773e+00	2.001473e+00	2.005790e+00	2.003003e+00	1.896898e+00	1.321492e+00	1.008446e+00	1.000089e+00	1.000001e+00	1.000000e+00	1.000000e+00	1.000000e+00	1.000000e+00	1.000000e+00	1.000000e+00	1.000000e+00	1.000000e+00	1.000000e+00	1.000000e+00	1.000000e+00	1.000000e+00	1.000000e+00	1.000000e+00	1.000000e+00	1.000000e+00	1.000000e+00	1.000000e+00	1.000000e+00	1.000000e+00	1.000000e+00	1.000000e+00	1.000000e+00	4.000000e+00	4.000000e+00	4.000000e+00	4.000000e+00	4.000000e+00	4.000000e+00	4.000000e+00	4.000000e+00	4.000000e+00	4.000000e+00	4.000000e+00	4.000000e+00	4.000000e+00	4.000000e+00	4.000000e+00	4.000000e+00	4.000000e+00	4.000000e+00	3.999999e+00	3.999997e+00	3.999983e+00	3.999891e+00	3.999103e+00	3.991446e+00	3.927031e+00	3.823402e+00	3.717972e+00	3.611890e+00	3.504652e+00	3.397339e+00	3.289154e+00	3.182289e+00	3.077726e+00	2.975399e+00	2.875222e+00	2.777060e+00	2.680823e+00	2.586454e+00	2.493904e+00	2.403124e+00	2.314043e+00	2.226592e+00	2.140652e+00	2.056100e+00	1.972841e+00	1.891093e+00	1.840835e+00	1.820293e+00	1.811991e+00	1.815880e+00	1.838886e+00	1.859055e+00	1.871441e+00	1.883048e+00	1.893133e+00	1.901248e+00	1.909300e+00	1.917344e+00	1.925212e+00	1.932372e+00	1.939082e+00	1.945483e+00	1.951246e+00	1.955953e+00	1.961844e+00	1.968811e+00	1.977492e+00	1.987721e+00	1.999635e+00	2.008309e+00	2.012280e+00	2.015670e+00	2.018877e+00	2.012469e+00	1.881767e+00	1.281798e+00	1.006785e+00	1.000068e+00	1.000001e+00	1.000000e+00	1.000000e+00	1.000000e+00	1.000000e+00	1.000000e+00	1.000000e+00	1.000000e+00	1.000000e+00	1.000000e+00	1.000000e+00	1.000000e+00	1.000000e+00	1.000000e+00	1.000000e+00	1.000000e+00	1.000000e+00	1.000000e+00	1.000000e+00	1.000000e+00	1.000000e+00	1.000000e+00	1.000000e+00	1.000000e+00	4.000000e+00	4.000000e+00	4.000000e+00	4.000000e+00	4.000000e+00	4.000000e+00	4.000000e+00	4.000000e+00	4.000000e+00	4.000000e+00	4.000000e+00	4.000000e+00	4.000000e+00	4.000000e+00	4.000000e+00	4.000000e+00	4.000000e+00	4.000000e+00	4.000000e+00	3.999999e+00	3.999990e+00	3.999915e+00	3.999108e+00	3.990461e+00	3.918250e+00	3.807755e+00	3.697936e+00	3.591687e+00	3.486395e+00	3.381219e+00	3.276268e+00	3.170876e+00	3.066997e+00	2.965425e+00	2.865935e+00	2.768453e+00	2.672853e+00	2.579074e+00	2.487078e+00	2.396792e+00	2.308142e+00	2.221068e+00	2.135468e+00	2.051189e+00	1.968236e+00	1.887323e+00	1.840207e+00	1.820735e+00	1.812631e+00	1.818508e+00	1.840712e+00	1.858649e+00	1.871000e+00	1.882973e+00	1.892952e+00	1.900977e+00	1.908666e+00	1.916210e+00	1.923439e+00	1.930154e+00	1.936306e+00	1.941861e+00	1.946269e+00	1.950705e+00	1.956109e+00	1.964547e+00	1.976262e+00	1.989040e+00	2.002399e+00	2.017912e+00	2.027928e+00	2.032226e+00	2.032697e+00	2.018037e+00	1.854265e+00	1.237445e+00	1.005237e+00	1.000050e+00	1.000000e+00	1.000000e+00	1.000000e+00	1.000000e+00	1.000000e+00	1.000000e+00	1.000000e+00	1.000000e+00	1.000000e+00	1.000000e+00	1.000000e+00	1.000000e+00	1.000000e+00	1.000000e+00	1.000000e+00	1.000000e+00	1.000000e+00	1.000000e+00	1.000000e+00	1.000000e+00	1.000000e+00	1.000000e+00	1.000000e+00	1.000000e+00	4.000000e+00	4.000000e+00	4.000000e+00	4.000000e+00	4.000000e+00	4.000000e+00	4.000000e+00	4.000000e+00	4.000000e+00	4.000000e+00	4.000000e+00	4.000000e+00	4.000000e+00	4.000000e+00	4.000000e+00	4.000000e+00	4.000000e+00	4.000000e+00	4.000000e+00	3.999999e+00	3.999991e+00	3.999897e+00	3.998858e+00	3.986787e+00	3.902619e+00	3.788753e+00	3.675815e+00	3.567528e+00	3.463724e+00	3.360640e+00	3.258472e+00	3.156426e+00	3.053951e+00	2.953071e+00	2.854242e+00	2.757415e+00	2.662473e+00	2.569328e+00	2.477954e+00	2.388254e+00	2.300157e+00	2.213577e+00	2.128438e+00	2.044567e+00	1.961954e+00	1.882333e+00	1.839421e+00	1.821704e+00	1.814254e+00	1.824343e+00	1.845292e+00	1.858633e+00	1.869873e+00	1.881988e+00	1.892592e+00	1.901178e+00	1.909145e+00	1.916990e+00	1.924380e+00	1.930893e+00	1.937156e+00	1.942930e+00	1.948766e+00	1.955605e+00	1.962234e+00	1.969121e+00	1.977848e+00	1.989553e+00	2.005196e+00	2.024893e+00	2.034124e+00	2.036755e+00	2.035281e+00	2.013845e+00	1.818896e+00	1.206930e+00	1.004105e+00	1.000038e+00	1.000000e+00	1.000000e+00	1.000000e+00	1.000000e+00	1.000000e+00	1.000000e+00	1.000000e+00	1.000000e+00	1.000000e+00	1.000000e+00	1.000000e+00	1.000000e+00	1.000000e+00	1.000000e+00	1.000000e+00	1.000000e+00	1.000000e+00	1.000000e+00	1.000000e+00	1.000000e+00	1.000000e+00	1.000000e+00	1.000000e+00	1.000000e+00	4.000000e+00	4.000000e+00	4.000000e+00	4.000000e+00	4.000000e+00	4.000000e+00	4.000000e+00	4.000000e+00	4.000000e+00	4.000000e+00	4.000000e+00	4.000000e+00	4.000000e+00	4.000000e+00	4.000000e+00	4.000000e+00	4.000000e+00	4.000000e+00	4.000000e+00	3.999999e+00	3.999987e+00	3.999850e+00	3.998293e+00	3.978208e+00	3.880012e+00	3.765389e+00	3.651852e+00	3.541591e+00	3.436763e+00	3.336176e+00	3.235989e+00	3.137333e+00	3.038000e+00	2.938434e+00	2.840357e+00	2.744155e+00	2.649849e+00	2.557369e+00	2.466636e+00	2.377559e+00	2.290079e+00	2.204086e+00	2.119520e+00	2.036199e+00	1.953731e+00	1.876490e+00	1.838100e+00	1.822749e+00	1.816959e+00	1.831494e+00	1.851002e+00	1.859121e+00	1.868592e+00	1.880675e+00	1.892255e+00	1.902268e+00	1.911304e+00	1.919975e+00	1.928171e+00	1.934965e+00	1.941733e+00	1.948663e+00	1.956170e+00	1.964146e+00	1.970838e+00	1.974080e+00	1.982432e+00	1.993316e+00	2.006257e+00	2.015669e+00	2.020775e+00	2.025346e+00	2.025518e+00	2.004064e+00	1.788961e+00	1.179063e+00	1.003090e+00	1.000027e+00	1.000000e+00	1.000000e+00	1.000000e+00	1.000000e+00	1.000000e+00	1.000000e+00	1.000000e+00	1.000000e+00	1.000000e+00	1.000000e+00	1.000000e+00	1.000000e+00	1.000000e+00	1.000000e+00	1.000000e+00	1.000000e+00	1.000000e+00	1.000000e+00	1.000000e+00	1.000000e+00	1.000000e+00	1.000000e+00	1.000000e+00	1.000000e+00	4.000000e+00	4.000000e+00	4.000000e+00	4.000000e+00	4.000000e+00	4.000000e+00	4.000000e+00	4.000000e+00	4.000000e+00	4.000000e+00	4.000000e+00	4.000000e+00	4.000000e+00	4.000000e+00	4.000000e+00	4.000000e+00	4.000000e+00	4.000000e+00	4.000000e+00	3.999998e+00	3.999978e+00	3.999739e+00	3.996829e+00	3.961268e+00	3.852393e+00	3.737684e+00	3.624348e+00	3.513967e+00	3.408127e+00	3.307628e+00	3.210123e+00	3.113026e+00	3.017367e+00	2.921006e+00	2.824218e+00	2.728832e+00	2.635209e+00	2.543388e+00	2.453310e+00	2.364890e+00	2.278064e+00	2.192742e+00	2.108844e+00	2.026179e+00	1.943804e+00	1.870263e+00	1.836458e+00	1.823717e+00	1.820335e+00	1.839034e+00	1.857323e+00	1.862967e+00	1.869964e+00	1.881300e+00	1.894235e+00	1.906048e+00	1.916453e+00	1.925791e+00	1.934708e+00	1.942011e+00	1.949137e+00	1.956685e+00	1.964858e+00	1.972352e+00	1.979390e+00	1.984994e+00	1.993090e+00	1.996503e+00	1.999267e+00	2.002754e+00	2.005415e+00	2.008979e+00	2.010486e+00	1.993040e+00	1.759595e+00	1.149000e+00	1.002100e+00	1.000017e+00	1.000000e+00	1.000000e+00	1.000000e+00	1.000000e+00	1.000000e+00	1.000000e+00	1.000000e+00	1.000000e+00	1.000000e+00	1.000000e+00	1.000000e+00	1.000000e+00	1.000000e+00	1.000000e+00	1.000000e+00	1.000000e+00	1.000000e+00	1.000000e+00	1.000000e+00	1.000000e+00	1.000000e+00	1.000000e+00	1.000000e+00	1.000000e+00	4.000000e+00	4.000000e+00	4.000000e+00	4.000000e+00	4.000000e+00	4.000000e+00	4.000000e+00	4.000000e+00	4.000000e+00	4.000000e+00	4.000000e+00	4.000000e+00	4.000000e+00	4.000000e+00	4.000000e+00	4.000000e+00	4.000000e+00	4.000000e+00	4.000000e+00	3.999996e+00	3.999957e+00	3.999471e+00	3.993570e+00	3.932709e+00	3.819755e+00	3.705189e+00	3.592707e+00	3.483854e+00	3.378314e+00	3.277499e+00	3.180503e+00	3.085743e+00	2.991388e+00	2.898526e+00	2.805234e+00	2.711365e+00	2.618709e+00	2.527613e+00	2.438229e+00	2.350459e+00	2.264305e+00	2.179705e+00	2.096557e+00	2.014717e+00	1.932418e+00	1.863944e+00	1.834724e+00	1.824352e+00	1.823949e+00	1.846257e+00	1.864734e+00	1.870477e+00	1.877877e+00	1.888324e+00	1.899873e+00	1.912050e+00	1.923279e+00	1.933396e+00	1.943007e+00	1.950331e+00	1.958137e+00	1.965839e+00	1.973713e+00	1.981052e+00	1.987160e+00	1.991847e+00	1.993237e+00	1.994023e+00	1.992690e+00	1.989926e+00	1.990219e+00	1.996201e+00	2.000116e+00	1.985343e+00	1.716056e+00	1.115603e+00	1.001337e+00	1.000011e+00	1.000000e+00	1.000000e+00	1.000000e+00	1.000000e+00	1.000000e+00	1.000000e+00	1.000000e+00	1.000000e+00	1.000000e+00	1.000000e+00	1.000000e+00	1.000000e+00	1.000000e+00	1.000000e+00	1.000000e+00	1.000000e+00	1.000000e+00	1.000000e+00	1.000000e+00	1.000000e+00	1.000000e+00	1.000000e+00	1.000000e+00	1.000000e+00	4.000000e+00	4.000000e+00	4.000000e+00	4.000000e+00	4.000000e+00	4.000000e+00	4.000000e+00	4.000000e+00	4.000000e+00	4.000000e+00	4.000000e+00	4.000000e+00	4.000000e+00	4.000000e+00	4.000000e+00	4.000000e+00	4.000000e+00	4.000000e+00	3.999999e+00	3.999992e+00	3.999904e+00	3.998817e+00	3.984580e+00	3.894480e+00	3.780509e+00	3.667501e+00	3.556914e+00	3.450623e+00	3.347093e+00	3.246527e+00	3.149289e+00	3.055169e+00	2.962686e+00	2.871011e+00	2.780847e+00	2.690898e+00	2.600035e+00	2.510073e+00	2.421519e+00	2.334495e+00	2.249082e+00	2.165272e+00	2.082904e+00	2.002079e+00	1.920101e+00	1.857916e+00	1.833030e+00	1.824740e+00	1.828844e+00	1.854427e+00	1.875074e+00	1.883109e+00	1.891206e+00	1.900452e+00	1.909539e+00	1.918823e+00	1.928620e+00	1.939011e+00	1.948627e+00	1.955889e+00	1.963626e+00	1.969985e+00	1.976085e+00	1.980522e+00	1.984080e+00	1.985717e+00	1.987455e+00	1.988145e+00	1.985722e+00	1.982068e+00	1.981293e+00	1.989876e+00	2.000152e+00	1.981947e+00	1.652179e+00	1.075693e+00	1.000625e+00	1.000006e+00	1.000000e+00	1.000000e+00	1.000000e+00	1.000000e+00	1.000000e+00	1.000000e+00	1.000000e+00	1.000000e+00	1.000000e+00	1.000000e+00	1.000000e+00	1.000000e+00	1.000000e+00	1.000000e+00	1.000000e+00	1.000000e+00	1.000000e+00	1.000000e+00	1.000000e+00	1.000000e+00	1.000000e+00	1.000000e+00	1.000000e+00	1.000000e+00	4.000000e+00	4.000000e+00	4.000000e+00	4.000000e+00	4.000000e+00	4.000000e+00	4.000000e+00	4.000000e+00	4.000000e+00	4.000000e+00	4.000000e+00	4.000000e+00	4.000000e+00	4.000000e+00	4.000000e+00	4.000000e+00	4.000000e+00	4.000000e+00	3.999999e+00	3.999981e+00	3.999767e+00	3.997015e+00	3.962134e+00	3.851549e+00	3.735648e+00	3.624130e+00	3.517199e+00	3.414364e+00	3.313846e+00	3.214768e+00	3.117587e+00	3.022867e+00	2.931013e+00	2.840904e+00	2.751857e+00	2.664333e+00	2.577605e+00	2.490306e+00	2.403057e+00	2.317066e+00	2.232527e+00	2.149626e+00	2.068159e+00	1.988484e+00	1.907907e+00	1.852731e+00	1.832646e+00	1.826162e+00	1.836479e+00	1.865531e+00	1.888222e+00	1.897549e+00	1.905685e+00	1.914216e+00	1.921777e+00	1.929302e+00	1.936663e+00	1.943354e+00	1.950271e+00	1.956874e+00	1.962807e+00	1.966914e+00	1.970012e+00	1.971589e+00	1.976004e+00	1.979315e+00	1.982477e+00	1.982817e+00	1.979618e+00	1.975799e+00	1.982012e+00	1.998195e+00	2.008782e+00	1.975980e+00	1.562993e+00	1.036580e+00	1.000339e+00	1.000003e+00	1.000000e+00	1.000000e+00	1.000000e+00	1.000000e+00	1.000000e+00	1.000000e+00	1.000000e+00	1.000000e+00	1.000000e+00	1.000000e+00	1.000000e+00	1.000000e+00	1.000000e+00	1.000000e+00	1.000000e+00	1.000000e+00	1.000000e+00	1.000000e+00	1.000000e+00	1.000000e+00	1.000000e+00	1.000000e+00	1.000000e+00	1.000000e+00	4.000000e+00	4.000000e+00	4.000000e+00	4.000000e+00	4.000000e+00	4.000000e+00	4.000000e+00	4.000000e+00	4.000000e+00	4.000000e+00	4.000000e+00	4.000000e+00	4.000000e+00	4.000000e+00	4.000000e+00	4.000000e+00	4.000000e+00	4.000000e+00	3.999996e+00	3.999950e+00	3.999362e+00	3.992030e+00	3.918758e+00	3.801639e+00	3.685470e+00	3.576955e+00	3.474149e+00	3.374994e+00	3.277659e+00	3.181095e+00	3.085267e+00	2.990803e+00	2.898632e+00	2.808776e+00	2.720806e+00	2.634269e+00	2.549154e+00	2.465145e+00	2.381431e+00	2.297436e+00	2.214316e+00	2.132591e+00	2.052344e+00	1.973939e+00	1.896420e+00	1.849432e+00	1.834189e+00	1.830368e+00	1.847801e+00	1.876569e+00	1.899025e+00	1.908511e+00	1.916979e+00	1.926171e+00	1.933705e+00	1.940592e+00	1.947305e+00	1.952691e+00	1.956595e+00	1.959569e+00	1.961976e+00	1.965016e+00	1.966579e+00	1.968240e+00	1.972671e+00	1.975726e+00	1.978418e+00	1.977153e+00	1.975615e+00	1.982737e+00	1.995809e+00	2.013330e+00	2.018493e+00	1.958258e+00	1.440432e+00	1.014135e+00	1.000159e+00	1.000001e+00	1.000000e+00	1.000000e+00	1.000000e+00	1.000000e+00	1.000000e+00	1.000000e+00	1.000000e+00	1.000000e+00	1.000000e+00	1.000000e+00	1.000000e+00	1.000000e+00	1.000000e+00	1.000000e+00	1.000000e+00	1.000000e+00	1.000000e+00	1.000000e+00	1.000000e+00	1.000000e+00	1.000000e+00	1.000000e+00	1.000000e+00	1.000000e+00	4.000000e+00	4.000000e+00	4.000000e+00	4.000000e+00	4.000000e+00	4.000000e+00	4.000000e+00	4.000000e+00	4.000000e+00	4.000000e+00	4.000000e+00	4.000000e+00	4.000000e+00	4.000000e+00	4.000000e+00	4.000000e+00	4.000000e+00	3.999999e+00	3.999989e+00	3.999853e+00	3.998085e+00	3.973203e+00	3.863099e+00	3.743422e+00	3.631177e+00	3.527314e+00	3.428613e+00	3.332654e+00	3.238182e+00	3.144460e+00	3.050878e+00	2.957985e+00	2.865940e+00	2.775996e+00	2.688425e+00	2.602682e+00	2.518592e+00	2.435871e+00	2.354310e+00	2.273630e+00	2.193117e+00	2.113290e+00	2.034940e+00	1.957954e+00	1.885913e+00	1.848938e+00	1.838449e+00	1.838544e+00	1.858552e+00	1.884331e+00	1.905538e+00	1.914680e+00	1.921724e+00	1.929488e+00	1.937358e+00	1.947367e+00	1.957337e+00	1.964246e+00	1.968469e+00	1.970703e+00	1.971852e+00	1.973191e+00	1.972922e+00	1.973313e+00	1.974110e+00	1.975901e+00	1.977637e+00	1.981386e+00	1.987414e+00	1.999468e+00	2.013281e+00	2.026463e+00	2.026797e+00	1.911298e+00	1.302608e+00	1.007069e+00	1.000067e+00	1.000001e+00	1.000000e+00	1.000000e+00	1.000000e+00	1.000000e+00	1.000000e+00	1.000000e+00	1.000000e+00	1.000000e+00	1.000000e+00	1.000000e+00	1.000000e+00	1.000000e+00	1.000000e+00	1.000000e+00	1.000000e+00	1.000000e+00	1.000000e+00	1.000000e+00	1.000000e+00	1.000000e+00	1.000000e+00	1.000000e+00	1.000000e+00	1.000000e+00	4.000000e+00	4.000000e+00	4.000000e+00	4.000000e+00	4.000000e+00	4.000000e+00	4.000000e+00	4.000000e+00	4.000000e+00	4.000000e+00	4.000000e+00	4.000000e+00	4.000000e+00	4.000000e+00	4.000000e+00	4.000000e+00	4.000000e+00	3.999997e+00	3.999962e+00	3.999497e+00	3.993263e+00	3.923677e+00	3.799402e+00	3.681113e+00	3.574473e+00	3.475740e+00	3.380752e+00	3.287568e+00	3.195512e+00	3.104314e+00	3.013788e+00	2.923107e+00	2.832907e+00	2.743389e+00	2.655534e+00	2.570123e+00	2.486613e+00	2.404877e+00	2.324575e+00	2.245503e+00	2.167658e+00	2.090533e+00	2.014827e+00	1.939720e+00	1.878016e+00	1.851269e+00	1.844252e+00	1.847794e+00	1.866494e+00	1.888184e+00	1.907217e+00	1.916519e+00	1.922193e+00	1.928300e+00	1.934570e+00	1.942770e+00	1.953978e+00	1.967985e+00	1.978801e+00	1.985731e+00	1.987465e+00	1.988429e+00	1.988454e+00	1.988581e+00	1.987280e+00	1.987499e+00	1.989142e+00	1.993700e+00	2.004207e+00	2.016998e+00	2.029896e+00	2.035184e+00	2.025482e+00	1.824488e+00	1.187092e+00	1.003106e+00	1.000025e+00	1.000000e+00	1.000000e+00	1.000000e+00	1.000000e+00	1.000000e+00	1.000000e+00	1.000000e+00	1.000000e+00	1.000000e+00	1.000000e+00	1.000000e+00	1.000000e+00	1.000000e+00	1.000000e+00	1.000000e+00	1.000000e+00	1.000000e+00	1.000000e+00	1.000000e+00	1.000000e+00	1.000000e+00	1.000000e+00	1.000000e+00	1.000000e+00	1.000000e+00	4.000000e+00	4.000000e+00	4.000000e+00	4.000000e+00	4.000000e+00	4.000000e+00	4.000000e+00	4.000000e+00	4.000000e+00	4.000000e+00	4.000000e+00	4.000000e+00	4.000000e+00	4.000000e+00	4.000000e+00	4.000000e+00	3.999999e+00	3.999989e+00	3.999850e+00	3.997938e+00	3.969769e+00	3.850453e+00	3.727381e+00	3.616747e+00	3.516456e+00	3.422275e+00	3.330528e+00	3.239876e+00	3.149992e+00	3.061039e+00	2.973152e+00	2.885155e+00	2.797815e+00	2.710206e+00	2.623377e+00	2.537899e+00	2.454402e+00	2.372918e+00	2.293297e+00	2.215317e+00	2.138974e+00	2.064124e+00	1.991232e+00	1.920188e+00	1.872679e+00	1.854802e+00	1.848996e+00	1.854805e+00	1.870441e+00	1.887906e+00	1.904612e+00	1.914815e+00	1.919931e+00	1.924888e+00	1.929731e+00	1.935235e+00	1.943794e+00	1.954441e+00	1.967664e+00	1.984678e+00	1.998090e+00	2.006975e+00	2.007815e+00	2.007470e+00	2.005203e+00	2.004069e+00	2.006747e+00	2.013229e+00	2.024179e+00	2.032484e+00	2.035918e+00	2.033645e+00	2.010556e+00	1.704969e+00	1.104840e+00	1.001115e+00	1.000010e+00	1.000000e+00	1.000000e+00	1.000000e+00	1.000000e+00	1.000000e+00	1.000000e+00	1.000000e+00	1.000000e+00	1.000000e+00	1.000000e+00	1.000000e+00	1.000000e+00	1.000000e+00	1.000000e+00	1.000000e+00	1.000000e+00	1.000000e+00	1.000000e+00	1.000000e+00	1.000000e+00	1.000000e+00	1.000000e+00	1.000000e+00	1.000000e+00	1.000000e+00	4.000000e+00	4.000000e+00	4.000000e+00	4.000000