# vtk DataFile Version 3.0
vtk output
ASCII
DATASET STRUCTURED_GRID
DIMENSIONS 102 102 1
POINTS 10404 double
0.000000e+00	0.000000e+00	0.0	1.980198e+00	0.000000e+00	0.0	3.960396e+00	0.000000e+00	0.0	5.940594e+00	0.000000e+00	0.0	7.920792e+00	0.000000e+00	0.0	9.900990e+00	0.000000e+00	0.0	1.188119e+01	0.000000e+00	0.0	1.386139e+01	0.000000e+00	0.0	1.584158e+01	0.000000e+00	0.0	1.782178e+01	0.000000e+00	0.0	1.980198e+01	0.000000e+00	0.0	2.178218e+01	0.000000e+00	0.0	2.376238e+01	0.000000e+00	0.0	2.574257e+01	0.000000e+00	0.0	2.772277e+01	0.000000e+00	0.0	2.970297e+01	0.000000e+00	0.0	3.168317e+01	0.000000e+00	0.0	3.366337e+01	0.000000e+00	0.0	3.564356e+01	0.000000e+00	0.0	3.762376e+01	0.000000e+00	0.0	3.960396e+01	0.000000e+00	0.0	4.158416e+01	0.000000e+00	0.0	4.356436e+01	0.000000e+00	0.0	4.554455e+01	0.000000e+00	0.0	4.752475e+01	0.000000e+00	0.0	4.950495e+01	0.000000e+00	0.0	5.148515e+01	0.000000e+00	0.0	5.346535e+01	0.000000e+00	0.0	5.544554e+01	0.000000e+00	0.0	5.742574e+01	0.000000e+00	0.0	5.940594e+01	0.000000e+00	0.0	6.138614e+01	0.000000e+00	0.0	6.336634e+01	0.000000e+00	0.0	6.534653e+01	0.000000e+00	0.0	6.732673e+01	0.000000e+00	0.0	6.930693e+01	0.000000e+00	0.0	7.128713e+01	0.000000e+00	0.0	7.326733e+01	0.000000e+00	0.0	7.524752e+01	0.000000e+00	0.0	7.722772e+01	0.000000e+00	0.0	7.920792e+01	0.000000e+00	0.0	8.118812e+01	0.000000e+00	0.0	8.316832e+01	0.000000e+00	0.0	8.514851e+01	0.000000e+00	0.0	8.712871e+01	0.000000e+00	0.0	8.910891e+01	0.000000e+00	0.0	9.108911e+01	0.000000e+00	0.0	9.306931e+01	0.000000e+00	0.0	9.504950e+01	0.000000e+00	0.0	9.702970e+01	0.000000e+00	0.0	9.900990e+01	0.000000e+00	0.0	1.009901e+02	0.000000e+00	0.0	1.029703e+02	0.000000e+00	0.0	1.049505e+02	0.000000e+00	0.0	1.069307e+02	0.000000e+00	0.0	1.089109e+02	0.000000e+00	0.0	1.108911e+02	0.000000e+00	0.0	1.128713e+02	0.000000e+00	0.0	1.148515e+02	0.000000e+00	0.0	1.168317e+02	0.000000e+00	0.0	1.188119e+02	0.000000e+00	0.0	1.207921e+02	0.000000e+00	0.0	1.227723e+02	0.000000e+00	0.0	1.247525e+02	0.000000e+00	0.0	1.267327e+02	0.000000e+00	0.0	1.287129e+02	0.000000e+00	0.0	1.306931e+02	0.000000e+00	0.0	1.326733e+02	0.000000e+00	0.0	1.346535e+02	0.000000e+00	0.0	1.366337e+02	0.000000e+00	0.0	1.386139e+02	0.000000e+00	0.0	1.405941e+02	0.000000e+00	0.0	1.425743e+02	0.000000e+00	0.0	1.445545e+02	0.000000e+00	0.0	1.465347e+02	0.000000e+00	0.0	1.485149e+02	0.000000e+00	0.0	1.504950e+02	0.000000e+00	0.0	1.524752e+02	0.000000e+00	0.0	1.544554e+02	0.000000e+00	0.0	1.564356e+02	0.000000e+00	0.0	1.584158e+02	0.000000e+00	0.0	1.603960e+02	0.000000e+00	0.0	1.623762e+02	0.000000e+00	0.0	1.643564e+02	0.000000e+00	0.0	1.663366e+02	0.000000e+00	0.0	1.683168e+02	0.000000e+00	0.0	1.702970e+02	0.000000e+00	0.0	1.722772e+02	0.000000e+00	0.0	1.742574e+02	0.000000e+00	0.0	1.762376e+02	0.000000e+00	0.0	1.782178e+02	0.000000e+00	0.0	1.801980e+02	0.000000e+00	0.0	1.821782e+02	0.000000e+00	0.0	1.841584e+02	0.000000e+00	0.0	1.861386e+02	0.000000e+00	0.0	1.881188e+02	0.000000e+00	0.0	1.900990e+02	0.000000e+00	0.0	1.920792e+02	0.000000e+00	0.0	1.940594e+02	0.000000e+00	0.0	1.960396e+02	0.000000e+00	0.0	1.980198e+02	0.000000e+00	0.0	2.000000e+02	0.000000e+00	0.0	0.000000e+00	1.980198e+00	0.0	1.980198e+00	1.980198e+00	0.0	3.960396e+00	1.980198e+00	0.0	5.940594e+00	1.980198e+00	0.0	7.920792e+00	1.980198e+00	0.0	9.900990e+00	1.980198e+00	0.0	1.188119e+01	1.980198e+00	0.0	1.386139e+01	1.980198e+00	0.0	1.584158e+01	1.980198e+00	0.0	1.782178e+01	1.980198e+00	0.0	1.980198e+01	1.980198e+00	0.0	2.178218e+01	1.980198e+00	0.0	2.376238e+01	1.980198e+00	0.0	2.574257e+01	1.980198e+00	0.0	2.772277e+01	1.980198e+00	0.0	2.970297e+01	1.980198e+00	0.0	3.168317e+01	1.980198e+00	0.0	3.366337e+01	1.980198e+00	0.0	3.564356e+01	1.980198e+00	0.0	3.762376e+01	1.980198e+00	0.0	3.960396e+01	1.980198e+00	0.0	4.158416e+01	1.980198e+00	0.0	4.356436e+01	1.980198e+00	0.0	4.554455e+01	1.980198e+00	0.0	4.752475e+01	1.980198e+00	0.0	4.950495e+01	1.980198e+00	0.0	5.148515e+01	1.980198e+00	0.0	5.346535e+01	1.980198e+00	0.0	5.544554e+01	1.980198e+00	0.0	5.742574e+01	1.980198e+00	0.0	5.940594e+01	1.980198e+00	0.0	6.138614e+01	1.980198e+00	0.0	6.336634e+01	1.980198e+00	0.0	6.534653e+01	1.980198e+00	0.0	6.732673e+01	1.980198e+00	0.0	6.930693e+01	1.980198e+00	0.0	7.128713e+01	1.980198e+00	0.0	7.326733e+01	1.980198e+00	0.0	7.524752e+01	1.980198e+00	0.0	7.722772e+01	1.980198e+00	0.0	7.920792e+01	1.980198e+00	0.0	8.118812e+01	1.980198e+00	0.0	8.316832e+01	1.980198e+00	0.0	8.514851e+01	1.980198e+00	0.0	8.712871e+01	1.980198e+00	0.0	8.910891e+01	1.980198e+00	0.0	9.108911e+01	1.980198e+00	0.0	9.306931e+01	1.980198e+00	0.0	9.504950e+01	1.980198e+00	0.0	9.702970e+01	1.980198e+00	0.0	9.900990e+01	1.980198e+00	0.0	1.009901e+02	1.980198e+00	0.0	1.029703e+02	1.980198e+00	0.0	1.049505e+02	1.980198e+00	0.0	1.069307e+02	1.980198e+00	0.0	1.089109e+02	1.980198e+00	0.0	1.108911e+02	1.980198e+00	0.0	1.128713e+02	1.980198e+00	0.0	1.148515e+02	1.980198e+00	0.0	1.168317e+02	1.980198e+00	0.0	1.188119e+02	1.980198e+00	0.0	1.207921e+02	1.980198e+00	0.0	1.227723e+02	1.980198e+00	0.0	1.247525e+02	1.980198e+00	0.0	1.267327e+02	1.980198e+00	0.0	1.287129e+02	1.980198e+00	0.0	1.306931e+02	1.980198e+00	0.0	1.326733e+02	1.980198e+00	0.0	1.346535e+02	1.980198e+00	0.0	1.366337e+02	1.980198e+00	0.0	1.386139e+02	1.980198e+00	0.0	1.405941e+02	1.980198e+00	0.0	1.425743e+02	1.980198e+00	0.0	1.445545e+02	1.980198e+00	0.0	1.465347e+02	1.980198e+00	0.0	1.485149e+02	1.980198e+00	0.0	1.504950e+02	1.980198e+00	0.0	1.524752e+02	1.980198e+00	0.0	1.544554e+02	1.980198e+00	0.0	1.564356e+02	1.980198e+00	0.0	1.584158e+02	1.980198e+00	0.0	1.603960e+02	1.980198e+00	0.0	1.623762e+02	1.980198e+00	0.0	1.643564e+02	1.980198e+00	0.0	1.663366e+02	1.980198e+00	0.0	1.683168e+02	1.980198e+00	0.0	1.702970e+02	1.980198e+00	0.0	1.722772e+02	1.980198e+00	0.0	1.742574e+02	1.980198e+00	0.0	1.762376e+02	1.980198e+00	0.0	1.782178e+02	1.980198e+00	0.0	1.801980e+02	1.980198e+00	0.0	1.821782e+02	1.980198e+00	0.0	1.841584e+02	1.980198e+00	0.0	1.861386e+02	1.980198e+00	0.0	1.881188e+02	1.980198e+00	0.0	1.900990e+02	1.980198e+00	0.0	1.920792e+02	1.980198e+00	0.0	1.940594e+02	1.980198e+00	0.0	1.960396e+02	1.980198e+00	0.0	1.980198e+02	1.980198e+00	0.0	2.000000e+02	1.980198e+00	0.0	0.000000e+00	3.960396e+00	0.0	1.980198e+00	3.960396e+00	0.0	3.960396e+00	3.960396e+00	0.0	5.940594e+00	3.960396e+00	0.0	7.920792e+00	3.960396e+00	0.0	9.900990e+00	3.960396e+00	0.0	1.188119e+01	3.960396e+00	0.0	1.386139e+01	3.960396e+00	0.0	1.584158e+01	3.960396e+00	0.0	1.782178e+01	3.960396e+00	0.0	1.980198e+01	3.960396e+00	0.0	2.178218e+01	3.960396e+00	0.0	2.376238e+01	3.960396e+00	0.0	2.574257e+01	3.960396e+00	0.0	2.772277e+01	3.960396e+00	0.0	2.970297e+01	3.960396e+00	0.0	3.168317e+01	3.960396e+00	0.0	3.366337e+01	3.960396e+00	0.0	3.564356e+01	3.960396e+00	0.0	3.762376e+01	3.960396e+00	0.0	3.960396e+01	3.960396e+00	0.0	4.158416e+01	3.960396e+00	0.0	4.356436e+01	3.960396e+00	0.0	4.554455e+01	3.960396e+00	0.0	4.752475e+01	3.960396e+00	0.0	4.950495e+01	3.960396e+00	0.0	5.148515e+01	3.960396e+00	0.0	5.346535e+01	3.960396e+00	0.0	5.544554e+01	3.960396e+00	0.0	5.742574e+01	3.960396e+00	0.0	5.940594e+01	3.960396e+00	0.0	6.138614e+01	3.960396e+00	0.0	6.336634e+01	3.960396e+00	0.0	6.534653e+01	3.960396e+00	0.0	6.732673e+01	3.960396e+00	0.0	6.930693e+01	3.960396e+00	0.0	7.128713e+01	3.960396e+00	0.0	7.326733e+01	3.960396e+00	0.0	7.524752e+01	3.960396e+00	0.0	7.722772e+01	3.960396e+00	0.0	7.920792e+01	3.960396e+00	0.0	8.118812e+01	3.960396e+00	0.0	8.316832e+01	3.960396e+00	0.0	8.514851e+01	3.960396e+00	0.0	8.712871e+01	3.960396e+00	0.0	8.910891e+01	3.960396e+00	0.0	9.108911e+01	3.960396e+00	0.0	9.306931e+01	3.960396e+00	0.0	9.504950e+01	3.960396e+00	0.0	9.702970e+01	3.960396e+00	0.0	9.900990e+01	3.960396e+00	0.0	1.009901e+02	3.960396e+00	0.0	1.029703e+02	3.960396e+00	0.0	1.049505e+02	3.960396e+00	0.0	1.069307e+02	3.960396e+00	0.0	1.089109e+02	3.960396e+00	0.0	1.108911e+02	3.960396e+00	0.0	1.128713e+02	3.960396e+00	0.0	1.148515e+02	3.960396e+00	0.0	1.168317e+02	3.960396e+00	0.0	1.188119e+02	3.960396e+00	0.0	1.207921e+02	3.960396e+00	0.0	1.227723e+02	3.960396e+00	0.0	1.247525e+02	3.960396e+00	0.0	1.267327e+02	3.960396e+00	0.0	1.287129e+02	3.960396e+00	0.0	1.306931e+02	3.960396e+00	0.0	1.326733e+02	3.960396e+00	0.0	1.346535e+02	3.960396e+00	0.0	1.366337e+02	3.960396e+00	0.0	1.386139e+02	3.960396e+00	0.0	1.405941e+02	3.960396e+00	0.0	1.425743e+02	3.960396e+00	0.0	1.445545e+02	3.960396e+00	0.0	1.465347e+02	3.960396e+00	0.0	1.485149e+02	3.960396e+00	0.0	1.504950e+02	3.960396e+00	0.0	1.524752e+02	3.960396e+00	0.0	1.544554e+02	3.960396e+00	0.0	1.564356e+02	3.960396e+00	0.0	1.584158e+02	3.960396e+00	0.0	1.603960e+02	3.960396e+00	0.0	1.623762e+02	3.960396e+00	0.0	1.643564e+02	3.960396e+00	0.0	1.663366e+02	3.960396e+00	0.0	1.683168e+02	3.960396e+00	0.0	1.702970e+02	3.960396e+00	0.0	1.722772e+02	3.960396e+00	0.0	1.742574e+02	3.960396e+00	0.0	1.762376e+02	3.960396e+00	0.0	1.782178e+02	3.960396e+00	0.0	1.801980e+02	3.960396e+00	0.0	1.821782e+02	3.960396e+00	0.0	1.841584e+02	3.960396e+00	0.0	1.861386e+02	3.960396e+00	0.0	1.881188e+02	3.960396e+00	0.0	1.900990e+02	3.960396e+00	0.0	1.920792e+02	3.960396e+00	0.0	1.940594e+02	3.960396e+00	0.0	1.960396e+02	3.960396e+00	0.0	1.980198e+02	3.960396e+00	0.0	2.000000e+02	3.960396e+00	0.0	0.000000e+00	5.940594e+00	0.0	1.980198e+00	5.940594e+00	0.0	3.960396e+00	5.940594e+00	0.0	5.940594e+00	5.940594e+00	0.0	7.920792e+00	5.940594e+00	0.0	9.900990e+00	5.940594e+00	0.0	1.188119e+01	5.940594e+00	0.0	1.386139e+01	5.940594e+00	0.0	1.584158e+01	5.940594e+00	0.0	1.782178e+01	5.940594e+00	0.0	1.980198e+01	5.940594e+00	0.0	2.178218e+01	5.940594e+00	0.0	2.376238e+01	5.940594e+00	0.0	2.574257e+01	5.940594e+00	0.0	2.772277e+01	5.940594e+00	0.0	2.970297e+01	5.940594e+00	0.0	3.168317e+01	5.940594e+00	0.0	3.366337e+01	5.940594e+00	0.0	3.564356e+01	5.940594e+00	0.0	3.762376e+01	5.940594e+00	0.0	3.960396e+01	5.940594e+00	0.0	4.158416e+01	5.940594e+00	0.0	4.356436e+01	5.940594e+00	0.0	4.554455e+01	5.940594
[...]
POINT_DATA 10404

SCALARS Height double 1
LOOKUP_TABLE default
4.000000e+00	4.000000e+00	4.000000e+00	4.000000e+00	4.000000e+00	4.000000e+00	4.000000e+00	3.999999e+00	3.999996e+00	3.999983e+00	3.999925e+00	3.999671e+00	3.998560e+00	3.993668e+00	3.971992e+00	3.912932e+00	3.831857e+00	3.741931e+00	3.648177e+00	3.553229e+00	3.458713e+00	3.365985e+00	3.275704e+00	3.188118e+00	3.103160e+00	3.020654e+00	2.940393e+00	2.862138e+00	2.785678e+00	2.710862e+00	2.637586e+00	2.565778e+00	2.495372e+00	2.426301e+00	2.358512e+00	2.291960e+00	2.226600e+00	2.162421e+00	2.099384e+00	2.037423e+00	1.976464e+00	1.916490e+00	1.857382e+00	1.799109e+00	1.740180e+00	1.695203e+00	1.676729e+00	1.669660e+00	1.669798e+00	1.695838e+00	1.724252e+00	1.742309e+00	1.755024e+00	1.768923e+00	1.781111e+00	1.791720e+00	1.801920e+00	1.811057e+00	1.819420e+00	1.827440e+00	1.835459e+00	1.843055e+00	1.850219e+00	1.857351e+00	1.864119e+00	1.870399e+00	1.876960e+00	1.883433e+00	1.889573e+00	1.895518e+00	1.900641e+00	1.905193e+00	1.908433e+00	1.911843e+00	1.917471e+00	1.926572e+00	1.940199e+00	1.956352e+00	1.970520e+00	1.979598e+00	1.985832e+00	1.978489e+00	1.893580e+00	1.498235e+00	1.064001e+00	1.002133e+00	1.000062e+00	1.000002e+00	1.000000e+00	1.000000e+00	1.000000e+00	1.000000e+00	1.000000e+00	1.000000e+00	1.000000e+00	1.000000e+00	1.000000e+00	1.000000e+00	1.000000e+00	1.000000e+00	1.000000e+00	1.000000e+00	4.000000e+00	4.000000e+00	4.000000e+00	4.000000e+00	4.000000e+00	4.000000e+00	4.000000e+00	4.000000e+00	3.999998e+00	3.999993e+00	3.999970e+00	3.999865e+00	3.999365e+00	3.996606e+00	3.976527e+00	3.910684e+00	3.829812e+00	3.741573e+00	3.648987e+00	3.554860e+00	3.461173e+00	3.369210e+00	3.279732e+00	3.192812e+00	3.108379e+00	3.026281e+00	2.946325e+00	2.868300e+00	2.792022e+00	2.717355e+00	2.644201e+00	2.572492e+00	2.502165e+00	2.433160e+00	2.365426e+00	2.298894e+00	2.233557e+00	2.169401e+00	2.106372e+00	2.044413e+00	1.983442e+00	1.923461e+00	1.864308e+00	1.805998e+00	1.747017e+00	1.702078e+00	1.683609e+00	1.676381e+00	1.676281e+00	1.702173e+00	1.730420e+00	1.748131e+00	1.760456e+00	1.774230e+00	1.786473e+00	1.797150e+00	1.807452e+00	1.816735e+00	1.825072e+00	1.832921e+00	1.840772e+00	1.848443e+00	1.855773e+00	1.863018e+00	1.869806e+00	1.876372e+00	1.883187e+00	1.890163e+00	1.896787e+00	1.903173e+00	1.909062e+00	1.913942e+00	1.918010e+00	1.922484e+00	1.928513e+00	1.937794e+00	1.948060e+00	1.962033e+00	1.974939e+00	1.981885e+00	1.987589e+00	1.982804e+00	1.916092e+00	1.474895e+00	1.022216e+00	1.000370e+00	1.000006e+00	1.000000e+00	1.000000e+00	1.000000e+00	1.000000e+00	1.000000e+00	1.000000e+00	1.000000e+00	1.000000e+00	1.000000e+00	1.000000e+00	1.000000e+00	1.000000e+00	1.000000e+00	1.000000e+00	1.000000e+00	4.000000e+00	4.000000e+00	4.000000e+00	4.000000e+00	4.000000e+00	4.000000e+00	4.000000e+00	4.000000e+00	3.999999e+00	3.999997e+00	3.999987e+00	3.999938e+00	3.999648e+00	3.997468e+00	3.976368e+00	3.902306e+00	3.817390e+00	3.727656e+00	3.635737e+00	3.540835e+00	3.445995e+00	3.353724e+00	3.264277e+00	3.177536e+00	3.093280e+00	3.011300e+00	2.931380e+00	2.853336e+00	2.777029e+00	2.702339e+00	2.629169e+00	2.557443e+00	2.487107e+00	2.418114e+00	2.350419e+00	2.284015e+00	2.218850e+00	2.154847e+00	2.091956e+00	2.030146e+00	1.969336e+00	1.909540e+00	1.850550e+00	1.792392e+00	1.733491e+00	1.690181e+00	1.672669e+00	1.665833e+00	1.667698e+00	1.694341e+00	1.722284e+00	1.739836e+00	1.753024e+00	1.767798e+00	1.781637e+00	1.794646e+00	1.807280e+00	1.818756e+00	1.828906e+00	1.837588e+00	1.845534e+00	1.852853e+00	1.859795e+00	1.866238e+00	1.872010e+00	1.877511e+00	1.883243e+00	1.889181e+00	1.895112e+00	1.901600e+00	1.908179e+00	1.914384e+00	1.920744e+00	1.926424e+00	1.933016e+00	1.938663e+00	1.946022e+00	1.954566e+00	1.962101e+00	1.966984e+00	1.970560e+00	1.967669e+00	1.910565e+00	1.473256e+00	1.020815e+00	1.000275e+00	1.000003e+00	1.000000e+00	1.000000e+00	1.000000e+00	1.000000e+00	1.000000e+00	1.000000e+00	1.000000e+00	1.000000e+00	1.000000e+00	1.000000e+00	1.000000e+00	1.000000e+00	1.000000e+00	1.000000e+00	1.000000e+00	4.000000e+00	4.000000e+00	4.000000e+00	4.000000e+00	4.000000e+00	4.000000e+00	4.000000e+00	4.000000e+00	4.000000e+00	3.999999e+00	3.999995e+00	3.999968e+00	3.999755e+00	3.997669e+00	3.973624e+00	3.892105e+00	3.801956e+00	3.710934e+00	3.618400e+00	3.526742e+00	3.434472e+00	3.344188e+00	3.256549e+00	3.171398e+00	3.088415e+00	3.007402e+00	2.928204e+00	2.850731e+00	2.774916e+00	2.700678e+00	2.627930e+00	2.556588e+00	2.486595e+00	2.417920e+00	2.350534e+00	2.284387e+00	2.219417e+00	2.155569e+00	2.092803e+00	2.031113e+00	1.970425e+00	1.910751e+00	1.851873e+00	1.793783e+00	1.735005e+00	1.693219e+00	1.676345e+00	1.669592e+00	1.672958e+00	1.699725e+00	1.726865e+00	1.743950e+00	1.757739e+00	1.773100e+00	1.787689e+00	1.801876e+00	1.815464e+00	1.827653e+00	1.838614e+00	1.848336e+00	1.856927e+00	1.864359e+00	1.871018e+00	1.876871e+00	1.881955e+00	1.886770e+00	1.891734e+00	1.896874e+00	1.902286e+00	1.908453e+00	1.915416e+00	1.922583e+00	1.929812e+00	1.936745e+00	1.943082e+00	1.948584e+00	1.952804e+00	1.955162e+00	1.956917e+00	1.960309e+00	1.962893e+00	1.960406e+00	1.902979e+00	1.466365e+00	1.018769e+00	1.000257e+00	1.000003e+00	1.000000e+00	1.000000e+00	1.000000e+00	1.000000e+00	1.000000e+00	1.000000e+00	1.000000e+00	1.000000e+00	1.000000e+00	1.000000e+00	1.000000e+00	1.000000e+00	1.000000e+00	1.000000e+00	1.000000e+00	4.000000e+00	4.000000e+00	4.000000e+00	4.000000e+00	4.000000e+00	4.000000e+00	4.000000e+00	4.000000e+00	4.000000e+00	4.000000e+00	3.999997e+00	3.999976e+00	3.999751e+00	3.997180e+00	3.967297e+00	3.876749e+00	3.780888e+00	3.686352e+00	3.594696e+00	3.504812e+00	3.417298e+00	3.329558e+00	3.243491e+00	3.159536e+00	3.077580e+00	2.997429e+00	2.918933e+00	2.842038e+00	2.766712e+00	2.692906e+00	2.620560e+00	2.549595e+00	2.479952e+00	2.411598e+00	2.344514e+00	2.278658e+00	2.213961e+00	2.150369e+00	2.087833e+00	2.026361e+00	1.965891e+00	1.906424e+00	1.847769e+00	1.789838e+00	1.731397e+00	1.692002e+00	1.676254e+00	1.669845e+00	1.675633e+00	1.702820e+00	1.729105e+00	1.745835e+00	1.760970e+00	1.777353e+00	1.792692e+00	1.807478e+00	1.821420e+00	1.833911e+00	1.845148e+00	1.855656e+00	1.866416e+00	1.875093e+00	1.882320e+00	1.887816e+00	1.891937e+00	1.895794e+00	1.899930e+00	1.904346e+00	1.909196e+00	1.915119e+00	1.921447e+00	1.928474e+00	1.936122e+00	1.943719e+00	1.950833e+00	1.955871e+00	1.955430e+00	1.950559e+00	1.947137e+00	1.951095e+00	1.955349e+00	1.954298e+00	1.895189e+00	1.445208e+00	1.016649e+00	1.000223e+00	1.000002e+00	1.000000e+00	1.000000e+00	1.000000e+00	1.000000e+00	1.000000e+00	1.000000e+00	1.000000e+00	1.000000e+00	1.000000e+00	1.000000e+00	1.000000e+00	1.000000e+00	1.000000e+00	1.000000e+00	1.000000e+00	4.000000e+00	4.000000e+00	4.000000e+00	4.000000e+00	4.000000e+00	4.000000e+00	4.000000e+00	4.000000e+00	4.000000e+00	4.000000e+00	3.999997e+00	3.999968e+00	3.999637e+00	3.995715e+00	3.954089e+00	3.855068e+00	3.753357e+00	3.655489e+00	3.564149e+00	3.478077e+00	3.394383e+00	3.311001e+00	3.227233e+00	3.144564e+00	3.063661e+00	2.984486e+00	2.906875e+00	2.830759e+00	2.756102e+00	2.682884e+00	2.611075e+00	2.540617e+00	2.471450e+00	2.403533e+00	2.336849e+00	2.271369e+00	2.207033e+00	2.143790e+00	2.081583e+00	2.020417e+00	1.960248e+00	1.901044e+00	1.842702e+00	1.784953e+00	1.727169e+00	1.690793e+00	1.676460e+00	1.670672e+00	1.680349e+00	1.707807e+00	1.732972e+00	1.750007e+00	1.767180e+00	1.783728e+00	1.798044e+00	1.811613e+00	1.825030e+00	1.837272e+00	1.848327e+00	1.858511e+00	1.869427e+00	1.881222e+00	1.891830e+00	1.898643e+00	1.902974e+00	1.906394e+00	1.909862e+00	1.913704e+00	1.917941e+00	1.922716e+00	1.926725e+00	1.933005e+00	1.941879e+00	1.949032e+00	1.952123e+00	1.953333e+00	1.950658e+00	1.944268e+00	1.940139e+00	1.945591e+00	1.953692e+00	1.953515e+00	1.886998e+00	1.408158e+00	1.013956e+00	1.000176e+00	1.000002e+00	1.000000e+00	1.000000e+00	1.000000e+00	1.000000e+00	1.000000e+00	1.000000e+00	1.000000e+00	1.000000e+00	1.000000e+00	1.000000e+00	1.000000e+00	1.000000e+00	1.000000e+00	1.000000e+00	1.000000e+00	4.000000e+00	4.000000e+00	4.000000e+00	4.000000e+00	4.000000e+00	4.000000e+00	4.000000e+00	4.000000e+00	4.000000e+00	4.000000e+00	3.999995e+00	3.999946e+00	3.999349e+00	3.992449e+00	3.928996e+00	3.823922e+00	3.718348e+00	3.619729e+00	3.529811e+00	3.447032e+00	3.366627e+00	3.287616e+00	3.207134e+00	3.126403e+00	3.046706e+00	2.968589e+00	2.892001e+00	2.816843e+00	2.743042e+00	2.670581e+00	2.599452e+00	2.529627e+00	2.461061e+00	2.393702e+00	2.327530e+00	2.262524e+00	2.198640e+00	2.135836e+00	2.074054e+00	2.013282e+00	1.953505e+00	1.894630e+00	1.836704e+00	1.779097e+00	1.722450e+00	1.689640e+00	1.676982e+00	1.672132e+00	1.686487e+00	1.714295e+00	1.738310e+00	1.755876e+00	1.773122e+00	1.788769e+00	1.801853e+00	1.813968e+00	1.826023e+00	1.837558e+00	1.848077e+00	1.857932e+00	1.867797e+00	1.879058e+00	1.891440e+00	1.903848e+00	1.912632e+00	1.918007e+00	1.921632e+00	1.924374e+00	1.927452e+00	1.930082e+00	1.932826e+00	1.938832e+00	1.942675e+00	1.944597e+00	1.945882e+00	1.945980e+00	1.943191e+00	1.939239e+00	1.940350e+00	1.947645e+00	1.957292e+00	1.956312e+00	1.874709e+00	1.356330e+00	1.010632e+00	1.000124e+00	1.000001e+00	1.000000e+00	1.000000e+00	1.000000e+00	1.000000e+00	1.000000e+00	1.000000e+00	1.000000e+00	1.000000e+00	1.000000e+00	1.000000e+00	1.000000e+00	1.000000e+00	1.000000e+00	1.000000e+00	1.000000e+00	3.999999e+00	4.000000e+00	4.000000e+00	4.000000e+00	4.000000e+00	4.000000e+00	4.000000e+00	4.000000e+00	4.000000e+00	3.999999e+00	3.999991e+00	3.999885e+00	3.998608e+00	3.981660e+00	3.889796e+00	3.780379e+00	3.676074e+00	3.580843e+00	3.493577e+00	3.412436e+00	3.335152e+00	3.258596e+00	3.182464e+00	3.104588e+00	3.026687e+00	2.949800e+00	2.874315e+00	2.800239e+00	2.727458e+00	2.655933e+00	2.585648e+00	2.516599e+00	2.448757e+00	2.382073e+00	2.316527e+00	2.252095e+00	2.188753e+00	2.126474e+00	2.065211e+00	2.004928e+00	1.945650e+00	1.887184e+00	1.829807e+00	1.772162e+00	1.717429e+00	1.688694e+00	1.678067e+00	1.675013e+00	1.694699e+00	1.723182e+00	1.744811e+00	1.760984e+00	1.777490e+00	1.792012e+00	1.804027e+00	1.814961e+00	1.825584e+00	1.835662e+00	1.845252e+00	1.854720e+00	1.864092e+00	1.873871e+00	1.885399e+00	1.898306e+00	1.914427e+00	1.926084e+00	1.933500e+00	1.936251e+00	1.937129e+00	1.938515e+00	1.941072e+00	1.941575e+00	1.939921e+00	1.938764e+00	1.939105e+00	1.938544e+00	1.937369e+00	1.939290e+00	1.945696e+00	1.953653e+00	1.961741e+00	1.960057e+00	1.854023e+00	1.296194e+00	1.007599e+00	1.000080e+00	1.000001e+00	1.000000e+00	1.000000e+00	1.000000e+00	1.000000e+00	1.000000e+00	1.000000e+00	1.000000e+00	1.000000e+00	1.000000e+00	1.000000e+00	1.000000e+00	1.000000e+00	1.000000e+00	1.000000e+00	1.000000e+00	3.999996e+00	3.999998e+00	3.999999e+00	4.000000e+00	4.000000e+00	4.000000e+00	4.000000e+00	4.000000e+00	4.000000e+00	3.999998e+00	3.999975e+00	3.999695e+00	3.996051e+00	3.951772e+00	3.837243e+00	3.726896e+00	3.628719e+00	3.539476e+00	3.455541e+00	3.375797e+00	3.299855e+00	3.225573e+00	3.152178e+00	3.078454e+00	3.003269e+00	2.928134e+00	2.853937e+00	2.781021e+00	2.709367e+00	2.638918e+00	2.569625e+00	2.501489e+00	2.434491e+00	2.368594e+00	2.303781e+00	2.240028e+00	2.177324e+00	2.115655e+00	2.054999e+00	1.995300e+00	1.936621e+00	1.878672e+00	1.821874e+00	1.764142e+00	1.712542e+00	1.688165e+00	1.679495e+00	1.680143e+00	1.704905e+00	1.732740e+00	1.750475e+00	1.764684e+00	1.779984e+00	1.793612e+00	1.804909e+00	1.814973e+00	1.824507e+00	1.833242e+00	1.841356e+00	1.849763e+00	1.858322e+00	1.866809e+00	1.876025e+00	1.886899e+00	1.899918e+00	1.916915e+00	1.933514e+00	1.944384e+00	1.946794e+00	1.945914e+00	1.944522e+00	1.941870e+00	1.938353e+00	1.935475e+00	1.934045e+00	1.933094e+00	1.936102e+00	1.942062e+00	1.951315e+00	1.960863e+00	1.967681e+00	1.963940e+00	1.821382e+00	1.228035e+00	1.004819e+00	1.000045e+00	1.000000e+00	1.000000e+00	1.000000e+00	1.000000e+00	1.000000e+00	1.000000e+00	1.000000e+00	1.000000e+00	1.000000e+00	1.000000e+00	1.000000e+00	1.000000e+00	1.000000e+00	1.000000e+00	1.000000e+00	1.000000e+00	3.999983e+00	3.999993e+00	3.999997e+00	3.999999e+00	4.000000e+00	4.000000e+00	4.000000e+00	3.999999e+00	3.999998e+00	3.999989e+00	3.999903e+00	3.998865e+00	3.984358e+00	3.886561e+00	3.771517e+00	3.668755e+00	3.578362e+00	3.495243e+00	3.415200e+00	3.337198e+00	3.261935e+00	3.189448e+00	3.117903e+00	3.047181e+00	2.975905e+00	2.903353e+00	2.830915e+00	2.759331e+00	2.688879e+00	2.619587e+00	2.551389e+00	2.484280e+00	2.418236e+00	2.353230e+00	2.289254e+00	2.226279e+00	2.164305e+00	2.103329e+00	2.043356e+00	1.984326e+00	1.926317e+00	1.869035e+00	1.812709e+00	1.755345e+00	1.708059e+00	1.688470e+00	1.681462e+00	1.688341e+00	1.715492e+00	1.741337e+00	1.755061e+00	1.767104e+00	1.781003e+00	1.793969e+00	1.805004e+00	1.814545e+00	1.823213e+00	1.830940e+00	1.837983e+00	1.845128e+00	1.852101e+00	1.858881e+00	1.865373e+00	1.872591e+00	1.883152e+00	1.895534e+00	1.911398e+00	1.931132e+00	1.945788e+00	1.950191e+00	1.947965e+00	1.944419e+00	1.940039e+00	1.935981e+00	1.931898e+00	1.934148e+00	1.939952e+00	1.948572e+00	1.959668e+00	1.967644e+00	1.974338e+00	1.966436e+00	1.765026e+00	1.168842e+00	1.002807e+00	1.000024e+00	1.000000e+00	1.000000e+00	1.000000e+00	1.000000e+00	1.000000e+00	1.000000e+00	1.000000e+00	1.000000e+00	1.000000e+00	1.000000e+00	1.000000e+00	1.000000e+00	1.000000e+00	1.000000e+00	1.000000e+00	1.000000e+00	3.999925e+00	3.999970e+00	3.999987e+00	3.999995e+00	3.999997e+00	3.999997e+00	3.999995e+00	3.999991e+00	3.999975e+00	3.999903e+00	3.999344e+00	3.992926e+00	3.925109e+00	3.807865e+00	3.701152e+00	3.608396e+00	3.525528e+00	3.447843e+00	3.371873e+00	3.296504e+00	3.222466e+00	3.150678e+00	3.080889e+00	3.012067e+00	2.943901e+00	2.875050e+00	2.805074e+00	2.735228e+00	2.666140e+00	2.598075e+00	2.531036e+00	2.465028e+00	2.400020e+00	2.335988e+00	2.272931e+00	2.210815e+00	2.149652e+00	2.089444e+00	2.030219e+00	1.971942e+00	1.914652e+00	1.858205e+00	1.802287e+00	1.745979e+00	1.704417e+00	1.689374e+00	1.684376e+00	1.698219e+00	1.725090e+00	1.748442e+00	1.758785e+00	1.768760e+00	1.781185e+00	1.793494e+00	1.804569e+00	1.814071e+00	1.822173e+00	1.829327e+00	1.835862e+00	1.842326e+00	1.848953e+00	1.855307e+00	1.860337e+00	1.864395e+00	1.867987e+00	1.875547e+00	1.887090e+00	1.902943e+00	1.925714e+00	1.945760e+00	1.950205e+00	1.949468e+00	1.946278e+00	1.943281e+00	1.942649e+00	1.947303e+00	1.951970e+00	1.959522e+00	1.968913e+00	1.975160e+00	1.980241e+00	1.961607e+00	1.692314e+00	1.116516e+00	1.001482e+00	1.000014e+00	1.000000e+00	1.000000e+00	1.000000e+00	1.000000e+00	1.000000e+00	1.000000e+00	1.000000e+00	1.000000e+00	1.000000e+00	1.000000e+00	1.000000e+00	1.000000e+00	1.000000e+00	1.000000e+00	1.000000e+00	1.000000e+00	3.999671e+00	3.999865e+00	3.999938e+00	3.999968e+00	3.999976e+00	3.999968e+00	3.999946e+00	3.999885e+00	3.999695e+00	3.998865e+00	3.992926e+00	3.938402e+00	3.828829e+00	3.724321e+00	3.630130e+00	3.546659e+00	3.470303e+00	3.397572e+00	3.325613e+00	3.253508e+00	3.181530e+00	3.110700e+00	3.041918e+00	2.974581e+00	2.908240e+00	2.842348e+00	2.775870e+00	2.708511e+00	2.641188e+00	2.574522e+00	2.508710e+00	2.443850e+00	2.379928e+00	2.316930e+00	2.254854e+00	2.193662e+00	2.133376e+00	2.074002e+00	2.015579e+00	1.958130e+00	1.901612e+00	1.846126e+00	1.790719e+00	1.736339e+00	1.701706e+00	1.691108e+00	1.689180e+00	1.707088e+00	1.732996e+00	1.753965e+00	1.762170e+00	1.770212e+00	1.781144e+00	1.792957e+00	1.804690e+00	1.815243e+00	1.824601e+00	1.833009e+00	1.840700e+00	1.847740e+00	1.854691e+00	1.860930e+00	1.866279e+00	1.869242e+00	1.870874e+00	1.871922e+00	1.874304e+00	1.881643e+00	1.894807e+00	1.921357e+00	1.945082e+00	1.955566e+00	1.963142e+00	1.964609e+00	1.964115e+00	1.964673e+00	1.968512e+00	1.973753e+00	1.978470e+00	1.981661e+00	1.977658e+00	1.941704e+00	1.612266e+00	1.074064e+00	1.000733e+00	1.000008e+00	1.000000e+00	1.000000e+00	1.000000e+00	1.000000e+00	1.000000e+00	1.000000e+00	1.000000e+00	1.000000e+00	1.000000e+00	1.000000e+00	1.000000e+00	1.000000e+00	1.000000e+00	1.000000e+00	1.000000e+00	1.000000e+00	3.998560e+00	3.999365e+00	3.999648e+00	3.999755e+00	3.999751e+00	3.999637e+00	3.999349e+00	3.998608e+00	3.996051e+00	3.984358e+00	3.925109e+00	3.828829e+00	3.733074e+00	3.642277e+00	3.559449e+00	3.483857e+00	3.413287e+00	3.345065e+00	3.276988e+00	3.208300e+00	3.138982e+00	3.069875e+00	3.002076e+00	2.935726e+00	2.870770e+00	2.806634e+00	2.742947e+00	2.678653e+00	2.613772e+00	2.548913e+00	2.484527e+00	2.420900e+00	2.358106e+00	2.296181e+00	2.235127e+00	2.174906e+00	2.115547e+00	2.057061e+00	1.999490e+00	1.942924e+00	1.887262e+00	1.832773e+00	1.778270e+00	1.726961e+00	1.700178e+00	1.693000e+00	1.694639e+00	1.714472e+00	1.739003e+00	1.758305e+00	1.765560e+00	1.772567e+00	1.782618e+00	1.794754e+00	1.808216e+00	1.821604e+00	1.832880e+00	1.842317e+00	1.850599e+00	1.857672e+00	1.864287e+00	1.870021e+00	1.875683e+00	1.879353e+00	1.881295e+00	1.881485e+00	1.881059e+00	1.880751e+00	1.884745e+00	1.892987e+00	1.915185e+00	1.943093e+00	1.965255e+00	1.979754e+00	1.984564e+00	1.985582e+00	1.986746e+00	1.985838e+00	1.978997e+00	1.975390e+00	1.966698e+00	1.916837e+00	1.529972e+00	1.040132e+00	1.000406e+00	1.000004e+00	1.000000e+00	1.000000e+00	1.000000e+00	1.000000e+00	1.000000e+00	1.000000e+00	1.000000e+00	1.000000e+00	1.000000e+00	1.000000e+00	1.000000e+00	1.000000e+00	1.000000e+00	1.000000e+00	1.000000e+00	1.000000e+00	3.993668e+00	3.996606e+00	3.997468e+00	3.997669e+00	3.997180e+00	3.995715e+00	3.992449e+00	3.981660e+00	3.951772e+00	3.886561e+00	3.807865e+00	3.724321e+00	3.642277e+00	3.563382e+00	3.489461e+00	3.420683e+00	3.355180e+00	3.291091e+00	3.226668e+00	3.161222e+00	3.094757e+00	3.028132e+00	2.961672e+00	2.896307e+00	2.832218e+00	2.769313e+00	2.707294e+00	2.645595e+00	2.583457e+00	2.520936e+00	2.458386e+00	2.396230e+00	2.334687e+00	2.273898e+00	2.213905e+00	2.154691e+00	2.096296e+00	2.038738e+00	1.982067e+00	1.926417e+00	1.871740e+00	1.818181e+00	1.764908e+00	1.719038e+00	1.700114e+00	1.694803e+00	1.699552e+00	1.720265e+00	1.743397e+00	1.761853e+00	1.769441e+00	1.777082e+00	1.787849e+00	1.800470e+00	1.814143e+00	1.828074e+00	1.841189e+00	1.852021e+00	1.861243e+00	1.868652e+00	1.875122e+00	1.880577e+00	1.886137e+00	1.890828e+00	1.893605e+00	1.894111e+00	1.893669e+00	1.892454e+00	1.892570e+00	1.895238e+00	1.904098e+00	1.923788e+00	1.952563e+00	1.977402e+00	1.995547e+00	2.002378e+00	1.998326e+00	1.987709e+00	1.977670e+00	1.971017e+00	1.958947e+00	1.889909e+00	1.437441e+00	1.016295e+00	1.000222e+00	1.000002e+00	1.000000e+00	1.000000e+00	1.000000e+00	1.000000e+00	1.000000e+00	1.000000e+00	1.000000e+00	1.000000e+00	1.000000e+00	1.000000e+00	1.000000e+00	1.000000e+00	1.000000e+00	1.000000e+00	1.000000e+00	1.000000e+00	3.971992e+00	3.976527e+00	3.976368e+00	3.973624e+00	3.967297e+00	3.954089e+00	3.928996e+00	3.889796e+00	3.837243e+00	3.771517e+00	3.701152e+00	3.630130e+00	3.559449e+00	3.489461e+00	3.422531e+00	3.358739e+00	3.297059e+00	3.236382e+00	3.175115e+00	3.112744e+00	3.049266e+00	2.985101e+00	2.920691e+00	2.856537e+00	2.793343e+00	2.731215e+00	2.670252e+00	2.610143e+00	2.550308e+00	2.490276e+00	2.429956e+00	2.369652e+00	2.309631e+00	2.250142e+00	2.191304e+00	2.133158e+00	2.075778e+00	2.019189e+00	1.963479e+00	1.908766e+00	1.855226e+00	1.802532e+00	1.751505e+00	1.713636e+00	1.700430e+00	1.696382e+00	1.704042e+00	1.724831e+00	1.746688e+00	1.764963e+00	1.774797e+00	1.783673e+00	1.794188e+00	1.805488e+00	1.817486e+00	1.830017e+00	1.843307e+00	1.856543e+00	1.868708e+00	1.878166e+00	1.885128e+00	1.891242e+00	1.896970e+00	1.902588e+00	1.906450e+00	1.908585e+00	1.909519e+00	1.909126e+00	1.907774e+00	1.908825e+00	1.913890e+00	1.922658e+00	1.937785e+00	1.963627e+00	1.983481e+00	1.991434e+00	1.995791e+00	1.988362e+00	1.977098e+00	1.969012e+00	1.955699e+00	1.858535e+00	1.326388e+00	1.009126e+00	1.000103e+00	1.000001e+00	1.000000e+00	1.000000e+00	1.000000e+00	1.000000e+00	1.000000e+00	1.000000e+00	1.000000e+00	1.000000e+00	1.000000e+00	1.000000e+00	1.000000e+00	1.000000e+00	1.000000e+00	1.000000e+00	1.000000e+00	1.000000e+00	3.912932e+00	3.910684e+00	3.902306e+00	3.892105