# vtk DataFile Version 3.0
vtk output
ASCII
DATASET STRUCTURED_GRID
DIMENSIONS 102 102 1
POINTS 10404 double
0.000000e+00	0.000000e+00	0.0	1.980198e+00	0.000000e+00	0.0	3.960396e+00	0.000000e+00	0.0	5.940594e+00	0.000000e+00	0.0	7.920792e+00	0.000000e+00	0.0	9.900990e+00	0.000000e+00	0.0	1.188119e+01	0.000000e+00	0.0	1.386139e+01	0.000000e+00	0.0	1.584158e+01	0.000000e+00	0.0	1.782178e+01	0.000000e+00	0.0	1.980198e+01	0.000000e+00	0.0	2.178218e+01	0.000000e+00	0.0	2.376238e+01	0.000000e+00	0.0	2.574257e+01	0.000000e+00	0.0	2.772277e+01	0.000000e+00	0.0	2.970297e+01	0.000000e+00	0.0	3.168317e+01	0.000000e+00	0.0	3.366337e+01	0.000000e+00	0.0	3.564356e+01	0.000000e+00	0.0	3.762376e+01	0.000000e+00	0.0	3.960396e+01	0.000000e+00	0.0	4.158416e+01	0.000000e+00	0.0	4.356436e+01	0.000000e+00	0.0	4.554455e+01	0.000000e+00	0.0	4.752475e+01	0.000000e+00	0.0	4.950495e+01	0.000000e+00	0.0	5.148515e+01	0.000000e+00	0.0	5.346535e+01	0.000000e+00	0.0	5.544554e+01	0.000000e+00	0.0	5.742574e+01	0.000000e+00	0.0	5.940594e+01	0.000000e+00	0.0	6.138614e+01	0.000000e+00	0.0	6.336634e+01	0.000000e+00	0.0	6.534653e+01	0.000000e+00	0.0	6.732673e+01	0.000000e+00	0.0	6.930693e+01	0.000000e+00	0.0	7.128713e+01	0.000000e+00	0.0	7.326733e+01	0.000000e+00	0.0	7.524752e+01	0.000000e+00	0.0	7.722772e+01	0.000000e+00	0.0	7.920792e+01	0.000000e+00	0.0	8.118812e+01	0.000000e+00	0.0	8.316832e+01	0.000000e+00	0.0	8.514851e+01	0.000000e+00	0.0	8.712871e+01	0.000000e+00	0.0	8.910891e+01	0.000000e+00	0.0	9.108911e+01	0.000000e+00	0.0	9.306931e+01	0.000000e+00	0.0	9.504950e+01	0.000000e+00	0.0	9.702970e+01	0.000000e+00	0.0	9.900990e+01	0.000000e+00	0.0	1.009901e+02	0.000000e+00	0.0	1.029703e+02	0.000000e+00	0.0	1.049505e+02	0.000000e+00	0.0	1.069307e+02	0.000000e+00	0.0	1.089109e+02	0.000000e+00	0.0	1.108911e+02	0.000000e+00	0.0	1.128713e+02	0.000000e+00	0.0	1.148515e+02	0.000000e+00	0.0	1.168317e+02	0.000000e+00	0.0	1.188119e+02	0.000000e+00	0.0	1.207921e+02	0.000000e+00	0.0	1.227723e+02	0.000000e+00	0.0	1.247525e+02	0.000000e+00	0.0	1.267327e+02	0.000000e+00	0.0	1.287129e+02	0.000000e+00	0.0	1.306931e+02	0.000000e+00	0.0	1.326733e+02	0.000000e+00	0.0	1.346535e+02	0.000000e+00	0.0	1.366337e+02	0.000000e+00	0.0	1.386139e+02	0.000000e+00	0.0	1.405941e+02	0.000000e+00	0.0	1.425743e+02	0.000000e+00	0.0	1.445545e+02	0.000000e+00	0.0	1.465347e+02	0.000000e+00	0.0	1.485149e+02	0.000000e+00	0.0	1.504950e+02	0.000000e+00	0.0	1.524752e+02	0.000000e+00	0.0	1.544554e+02	0.000000e+00	0.0	1.564356e+02	0.000000e+00	0.0	1.584158e+02	0.000000e+00	0.0	1.603960e+02	0.000000e+00	0.0	1.623762e+02	0.000000e+00	0.0	1.643564e+02	0.000000e+00	0.0	1.663366e+02	0.000000e+00	0.0	1.683168e+02	0.000000e+00	0.0	1.702970e+02	0.000000e+00	0.0	1.722772e+02	0.000000e+00	0.0	1.742574e+02	0.000000e+00	0.0	1.762376e+02	0.000000e+00	0.0	1.782178e+02	0.000000e+00	0.0	1.801980e+02	0.000000e+00	0.0	1.821782e+02	0.000000e+00	0.0	1.841584e+02	0.000000e+00	0.0	1.861386e+02	0.000000e+00	0.0	1.881188e+02	0.000000e+00	0.0	1.900990e+02	0.000000e+00	0.0	1.920792e+02	0.000000e+00	0.0	1.940594e+02	0.000000e+00	0.0	1.960396e+02	0.000000e+00	0.0	1.980198e+02	0.000000e+00	0.0	2.000000e+02	0.000000e+00	0.0	0.000000e+00	1.980198e+00	0.0	1.980198e+00	1.980198e+00	0.0	3.960396e+00	1.980198e+00	0.0	5.940594e+00	1.980198e+00	0.0	7.920792e+00	1.980198e+00	0.0	9.900990e+00	1.980198e+00	0.0	1.188119e+01	1.980198e+00	0.0	1.386139e+01	1.980198e+00	0.0	1.584158e+01	1.980198e+00	0.0	1.782178e+01	1.980198e+00	0.0	1.980198e+01	1.980198e+00	0.0	2.178218e+01	1.980198e+00	0.0	2.376238e+01	1.980198e+00	0.0	2.574257e+01	1.980198e+00	0.0	2.772277e+01	1.980198e+00	0.0	2.970297e+01	1.980198e+00	0.0	3.168317e+01	1.980198e+00	0.0	3.366337e+01	1.980198e+00	0.0	3.564356e+01	1.980198e+00	0.0	3.762376e+01	1.980198e+00	0.0	3.960396e+01	1.980198e+00	0.0	4.158416e+01	1.980198e+00	0.0	4.356436e+01	1.980198e+00	0.0	4.554455e+01	1.980198e+00	0.0	4.752475e+01	1.980198e+00	0.0	4.950495e+01	1.980198e+00	0.0	5.148515e+01	1.980198e+00	0.0	5.346535e+01	1.980198e+00	0.0	5.544554e+01	1.980198e+00	0.0	5.742574e+01	1.980198e+00	0.0	5.940594e+01	1.980198e+00	0.0	6.138614e+01	1.980198e+00	0.0	6.336634e+01	1.980198e+00	0.0	6.534653e+01	1.980198e+00	0.0	6.732673e+01	1.980198e+00	0.0	6.930693e+01	1.980198e+00	0.0	7.128713e+01	1.980198e+00	0.0	7.326733e+01	1.980198e+00	0.0	7.524752e+01	1.980198e+00	0.0	7.722772e+01	1.980198e+00	0.0	7.920792e+01	1.980198e+00	0.0	8.118812e+01	1.980198e+00	0.0	8.316832e+01	1.980198e+00	0.0	8.514851e+01	1.980198e+00	0.0	8.712871e+01	1.980198e+00	0.0	8.910891e+01	1.980198e+00	0.0	9.108911e+01	1.980198e+00	0.0	9.306931e+01	1.980198e+00	0.0	9.504950e+01	1.980198e+00	0.0	9.702970e+01	1.980198e+00	0.0	9.900990e+01	1.980198e+00	0.0	1.009901e+02	1.980198e+00	0.0	1.029703e+02	1.980198e+00	0.0	1.049505e+02	1.980198e+00	0.0	1.069307e+02	1.980198e+00	0.0	1.089109e+02	1.980198e+00	0.0	1.108911e+02	1.980198e+00	0.0	1.128713e+02	1.980198e+00	0.0	1.148515e+02	1.980198e+00	0.0	1.168317e+02	1.980198e+00	0.0	1.188119e+02	1.980198e+00	0.0	1.207921e+02	1.980198e+00	0.0	1.227723e+02	1.980198e+00	0.0	1.247525e+02	1.980198e+00	0.0	1.267327e+02	1.980198e+00	0.0	1.287129e+02	1.980198e+00	0.0	1.306931e+02	1.980198e+00	0.0	1.326733e+02	1.980198e+00	0.0	1.346535e+02	1.980198e+00	0.0	1.366337e+02	1.980198e+00	0.0	1.386139e+02	1.980198e+00	0.0	1.405941e+02	1.980198e+00	0.0	1.425743e+02	1.980198e+00	0.0	1.445545e+02	1.980198e+00	0.0	1.465347e+02	1.980198e+00	0.0	1.485149e+02	1.980198e+00	0.0	1.504950e+02	1.980198e+00	0.0	1.524752e+02	1.980198e+00	0.0	1.544554e+02	1.980198e+00	0.0	1.564356e+02	1.980198e+00	0.0	1.584158e+02	1.980198e+00	0.0	1.603960e+02	1.980198e+00	0.0	1.623762e+02	1.980198e+00	0.0	1.643564e+02	1.980198e+00	0.0	1.663366e+02	1.980198e+00	0.0	1.683168e+02	1.980198e+00	0.0	1.702970e+02	1.980198e+00	0.0	1.722772e+02	1.980198e+00	0.0	1.742574e+02	1.980198e+00	0.0	1.762376e+02	1.980198e+00	0.0	1.782178e+02	1.980198e+00	0.0	1.801980e+02	1.980198e+00	0.0	1.821782e+02	1.980198e+00	0.0	1.841584e+02	1.980198e+00	0.0	1.861386e+02	1.980198e+00	0.0	1.881188e+02	1.980198e+00	0.0	1.900990e+02	1.980198e+00	0.0	1.920792e+02	1.980198e+00	0.0	1.940594e+02	1.980198e+00	0.0	1.960396e+02	1.980198e+00	0.0	1.980198e+02	1.980198e+00	0.0	2.000000e+02	1.980198e+00	0.0	0.000000e+00	3.960396e+00	0.0	1.980198e+00	3.960396e+00	0.0	3.960396e+00	3.960396e+00	0.0	5.940594e+00	3.960396e+00	0.0	7.920792e+00	3.960396e+00	0.0	9.900990e+00	3.960396e+00	0.0	1.188119e+01	3.960396e+00	0.0	1.386139e+01	3.960396e+00	0.0	1.584158e+01	3.960396e+00	0.0	1.782178e+01	3.960396e+00	0.0	1.980198e+01	3.960396e+00	0.0	2.178218e+01	3.960396e+00	0.0	2.376238e+01	3.960396e+00	0.0	2.574257e+01	3.960396e+00	0.0	2.772277e+01	3.960396e+00	0.0	2.970297e+01	3.960396e+00	0.0	3.168317e+01	3.960396e+00	0.0	3.366337e+01	3.960396e+00	0.0	3.564356e+01	3.960396e+00	0.0	3.762376e+01	3.960396e+00	0.0	3.960396e+01	3.960396e+00	0.0	4.158416e+01	3.960396e+00	0.0	4.356436e+01	3.960396e+00	0.0	4.554455e+01	3.960396e+00	0.0	4.752475e+01	3.960396e+00	0.0	4.950495e+01	3.960396e+00	0.0	5.148515e+01	3.960396e+00	0.0	5.346535e+01	3.960396e+00	0.0	5.544554e+01	3.960396e+00	0.0	5.742574e+01	3.960396e+00	0.0	5.940594e+01	3.960396e+00	0.0	6.138614e+01	3.960396e+00	0.0	6.336634e+01	3.960396e+00	0.0	6.534653e+01	3.960396e+00	0.0	6.732673e+01	3.960396e+00	0.0	6.930693e+01	3.960396e+00	0.0	7.128713e+01	3.960396e+00	0.0	7.326733e+01	3.960396e+00	0.0	7.524752e+01	3.960396e+00	0.0	7.722772e+01	3.960396e+00	0.0	7.920792e+01	3.960396e+00	0.0	8.118812e+01	3.960396e+00	0.0	8.316832e+01	3.960396e+00	0.0	8.514851e+01	3.960396e+00	0.0	8.712871e+01	3.960396e+00	0.0	8.910891e+01	3.960396e+00	0.0	9.108911e+01	3.960396e+00	0.0	9.306931e+01	3.960396e+00	0.0	9.504950e+01	3.960396e+00	0.0	9.702970e+01	3.960396e+00	0.0	9.900990e+01	3.960396e+00	0.0	1.009901e+02	3.960396e+00	0.0	1.029703e+02	3.960396e+00	0.0	1.049505e+02	3.960396e+00	0.0	1.069307e+02	3.960396e+00	0.0	1.089109e+02	3.960396e+00	0.0	1.108911e+02	3.960396e+00	0.0	1.128713e+02	3.960396e+00	0.0	1.148515e+02	3.960396e+00	0.0	1.168317e+02	3.960396e+00	0.0	1.188119e+02	3.960396e+00	0.0	1.207921e+02	3.960396e+00	0.0	1.227723e+02	3.960396e+00	0.0	1.247525e+02	3.960396e+00	0.0	1.267327e+02	3.960396e+00	0.0	1.287129e+02	3.960396e+00	0.0	1.306931e+02	3.960396e+00	0.0	1.326733e+02	3.960396e+00	0.0	1.346535e+02	3.960396e+00	0.0	1.366337e+02	3.960396e+00	0.0	1.386139e+02	3.960396e+00	0.0	1.405941e+02	3.960396e+00	0.0	1.425743e+02	3.960396e+00	0.0	1.445545e+02	3.960396e+00	0.0	1.465347e+02	3.960396e+00	0.0	1.485149e+02	3.960396e+00	0.0	1.504950e+02	3.960396e+00	0.0	1.524752e+02	3.960396e+00	0.0	1.544554e+02	3.960396e+00	0.0	1.564356e+02	3.960396e+00	0.0	1.584158e+02	3.960396e+00	0.0	1.603960e+02	3.960396e+00	0.0	1.623762e+02	3.960396e+00	0.0	1.643564e+02	3.960396e+00	0.0	1.663366e+02	3.960396e+00	0.0	1.683168e+02	3.960396e+00	0.0	1.702970e+02	3.960396e+00	0.0	1.722772e+02	3.960396e+00	0.0	1.742574e+02	3.960396e+00	0.0	1.762376e+02	3.960396e+00	0.0	1.782178e+02	3.960396e+00	0.0	1.801980e+02	3.960396e+00	0.0	1.821782e+02	3.960396e+00	0.0	1.841584e+02	3.960396e+00	0.0	1.861386e+02	3.960396e+00	0.0	1.881188e+02	3.960396e+00	0.0	1.900990e+02	3.960396e+00	0.0	1.920792e+02	3.960396e+00	0.0	1.940594e+02	3.960396e+00	0.0	1.960396e+02	3.960396e+00	0.0	1.980198e+02	3.960396e+00	0.0	2.000000e+02	3.960396e+00	0.0	0.000000e+00	5.940594e+00	0.0	1.980198e+00	5.940594e+00	0.0	3.960396e+00	5.940594e+00	0.0	5.940594e+00	5.940594e+00	0.0	7.920792e+00	5.940594e+00	0.0	9.900990e+00	5.940594e+00	0.0	1.188119e+01	5.940594e+00	0.0	1.386139e+01	5.940594e+00	0.0	1.584158e+01	5.940594e+00	0.0	1.782178e+01	5.940594e+00	0.0	1.980198e+01	5.940594e+00	0.0	2.178218e+01	5.940594e+00	0.0	2.376238e+01	5.940594e+00	0.0	2.574257e+01	5.940594e+00	0.0	2.772277e+01	5.940594e+00	0.0	2.970297e+01	5.940594e+00	0.0	3.168317e+01	5.940594e+00	0.0	3.366337e+01	5.940594e+00	0.0	3.564356e+01	5.940594e+00	0.0	3.762376e+01	5.940594e+00	0.0	3.960396e+01	5.940594e+00	0.0	4.158416e+01	5.940594e+00	0.0	4.356436e+01	5.940594e+00	0.0	4.554455e+01	5.940594
[...]
POINT_DATA 10404

SCALARS Height double 1
LOOKUP_TABLE default
4.000000e+00	4.000000e+00	4.000000e+00	4.000000e+00	4.000000e+00	4.000000e+00	4.000000e+00	4.000000e+00	4.000000e+00	4.000000e+00	4.000000e+00	4.000000e+00	4.000000e+00	3.999998e+00	3.999993e+00	3.999971e+00	3.999874e+00	3.999451e+00	3.997609e+00	3.989528e+00	3.955539e+00	3.882866e+00	3.792062e+00	3.693367e+00	3.591132e+00	3.488018e+00	3.385612e+00	3.285000e+00	3.186708e+00	3.090787e+00	2.997178e+00	2.905757e+00	2.816375e+00	2.728912e+00	2.643279e+00	2.559387e+00	2.477158e+00	2.396534e+00	2.317439e+00	2.239837e+00	2.163635e+00	2.088739e+00	2.015097e+00	1.942548e+00	1.871094e+00	1.802846e+00	1.769070e+00	1.755345e+00	1.749257e+00	1.761734e+00	1.787728e+00	1.807491e+00	1.818569e+00	1.831815e+00	1.844873e+00	1.856202e+00	1.866863e+00	1.876558e+00	1.885376e+00	1.893353e+00	1.901660e+00	1.910414e+00	1.918661e+00	1.926980e+00	1.934617e+00	1.941683e+00	1.949864e+00	1.960422e+00	1.972515e+00	1.984697e+00	1.994130e+00	1.999827e+00	1.999900e+00	1.993777e+00	1.986532e+00	1.982259e+00	1.971661e+00	1.906057e+00	1.549812e+00	1.085493e+00	1.002777e+00	1.000078e+00	1.000002e+00	1.000000e+00	1.000000e+00	1.000000e+00	1.000000e+00	1.000000e+00	1.000000e+00	1.000000e+00	1.000000e+00	1.000000e+00	1.000000e+00	1.000000e+00	1.000000e+00	1.000000e+00	1.000000e+00	1.000000e+00	1.000000e+00	1.000000e+00	1.000000e+00	1.000000e+00	4.000000e+00	4.000000e+00	4.000000e+00	4.000000e+00	4.000000e+00	4.000000e+00	4.000000e+00	4.000000e+00	4.000000e+00	4.000000e+00	4.000000e+00	4.000000e+00	4.000000e+00	3.999999e+00	3.999997e+00	3.999988e+00	3.999949e+00	3.999770e+00	3.998900e+00	3.993832e+00	3.958499e+00	3.880118e+00	3.789968e+00	3.692892e+00	3.591904e+00	3.489630e+00	3.388171e+00	3.288368e+00	3.190747e+00	3.095413e+00	3.002296e+00	2.911277e+00	2.822223e+00	2.735029e+00	2.649614e+00	2.565900e+00	2.483820e+00	2.403324e+00	2.324351e+00	2.246842e+00	2.170721e+00	2.095889e+00	2.022316e+00	1.949814e+00	1.878342e+00	1.810303e+00	1.776618e+00	1.762800e+00	1.756597e+00	1.768647e+00	1.794690e+00	1.814324e+00	1.824639e+00	1.837168e+00	1.849708e+00	1.861106e+00	1.871989e+00	1.881933e+00	1.890983e+00	1.899239e+00	1.907819e+00	1.916685e+00	1.925357e+00	1.934011e+00	1.942078e+00	1.949488e+00	1.957585e+00	1.966692e+00	1.978415e+00	1.988582e+00	1.997493e+00	2.004084e+00	2.001278e+00	1.995443e+00	1.988472e+00	1.985518e+00	1.978502e+00	1.928692e+00	1.536350e+00	1.040226e+00	1.000491e+00	1.000007e+00	1.000000e+00	1.000000e+00	1.000000e+00	1.000000e+00	1.000000e+00	1.000000e+00	1.000000e+00	1.000000e+00	1.000000e+00	1.000000e+00	1.000000e+00	1.000000e+00	1.000000e+00	1.000000e+00	1.000000e+00	1.000000e+00	1.000000e+00	1.000000e+00	1.000000e+00	1.000000e+00	4.000000e+00	4.000000e+00	4.000000e+00	4.000000e+00	4.000000e+00	4.000000e+00	4.000000e+00	4.000000e+00	4.000000e+00	4.000000e+00	4.000000e+00	4.000000e+00	4.000000e+00	4.000000e+00	3.999999e+00	3.999995e+00	3.999978e+00	3.999890e+00	3.999351e+00	3.995074e+00	3.957325e+00	3.870736e+00	3.777495e+00	3.679141e+00	3.579037e+00	3.476775e+00	3.374837e+00	3.275055e+00	3.177353e+00	3.081978e+00	2.988844e+00	2.897793e+00	2.808709e+00	2.721485e+00	2.636021e+00	2.552251e+00	2.470145e+00	2.389670e+00	2.310765e+00	2.233347e+00	2.157332e+00	2.082631e+00	2.009203e+00	1.936902e+00	1.865372e+00	1.798648e+00	1.766472e+00	1.753417e+00	1.747870e+00	1.762031e+00	1.787908e+00	1.807165e+00	1.817748e+00	1.829624e+00	1.840865e+00	1.851409e+00	1.862240e+00	1.872564e+00	1.882105e+00	1.890778e+00	1.899389e+00	1.907982e+00	1.916452e+00	1.925061e+00	1.933345e+00	1.941308e+00	1.948531e+00	1.955392e+00	1.961581e+00	1.968169e+00	1.976274e+00	1.982343e+00	1.985964e+00	1.988101e+00	1.989835e+00	1.990714e+00	1.986228e+00	1.934549e+00	1.508275e+00	1.027761e+00	1.000313e+00	1.000003e+00	1.000000e+00	1.000000e+00	1.000000e+00	1.000000e+00	1.000000e+00	1.000000e+00	1.000000e+00	1.000000e+00	1.000000e+00	1.000000e+00	1.000000e+00	1.000000e+00	1.000000e+00	1.000000e+00	1.000000e+00	1.000000e+00	1.000000e+00	1.000000e+00	1.000000e+00	1.000000e+00	4.000000e+00	4.000000e+00	4.000000e+00	4.000000e+00	4.000000e+00	4.000000e+00	4.000000e+00	4.000000e+00	4.000000e+00	4.000000e+00	4.000000e+00	4.000000e+00	4.000000e+00	4.000000e+00	4.000000e+00	3.999998e+00	3.999990e+00	3.999940e+00	3.999528e+00	3.995416e+00	3.954027e+00	3.859548e+00	3.761756e+00	3.663802e+00	3.564976e+00	3.466581e+00	3.366934e+00	3.268238e+00	3.171805e+00	3.077582e+00	2.985425e+00	2.895201e+00	2.806826e+00	2.720224e+00	2.635304e+00	2.552008e+00	2.470319e+00	2.390214e+00	2.311630e+00	2.234473e+00	2.158696e+00	2.084223e+00	2.010999e+00	1.938921e+00	1.867458e+00	1.802121e+00	1.771273e+00	1.758801e+00	1.753742e+00	1.769280e+00	1.794501e+00	1.812802e+00	1.823520e+00	1.834883e+00	1.845061e+00	1.854615e+00	1.864916e+00	1.875207e+00	1.884983e+00	1.893839e+00	1.902367e+00	1.910744e+00	1.919040e+00	1.927352e+00	1.935356e+00	1.942596e+00	1.948906e+00	1.953102e+00	1.955101e+00	1.957109e+00	1.960054e+00	1.965531e+00	1.973179e+00	1.981271e+00	1.990534e+00	1.998969e+00	2.000862e+00	1.942355e+00	1.476762e+00	1.018236e+00	1.000243e+00	1.000002e+00	1.000000e+00	1.000000e+00	1.000000e+00	1.000000e+00	1.000000e+00	1.000000e+00	1.000000e+00	1.000000e+00	1.000000e+00	1.000000e+00	1.000000e+00	1.000000e+00	1.000000e+00	1.000000e+00	1.000000e+00	1.000000e+00	1.000000e+00	1.000000e+00	1.000000e+00	1.000000e+00	4.000000e+00	4.000000e+00	4.000000e+00	4.000000e+00	4.000000e+00	4.000000e+00	4.000000e+00	4.000000e+00	4.000000e+00	4.000000e+00	4.000000e+00	4.000000e+00	4.000000e+00	4.000000e+00	4.000000e+00	3.999999e+00	3.999994e+00	3.999954e+00	3.999533e+00	3.994741e+00	3.946669e+00	3.844484e+00	3.741999e+00	3.643186e+00	3.546314e+00	3.449505e+00	3.353227e+00	3.256220e+00	3.160811e+00	3.067511e+00	2.976183e+00	2.886688e+00	2.798954e+00	2.712922e+00	2.628525e+00	2.545706e+00	2.464440e+00	2.384706e+00	2.306471e+00	2.229657e+00	2.154210e+00	2.080063e+00	2.007127e+00	1.935346e+00	1.863963e+00	1.800930e+00	1.772050e+00	1.760653e+00	1.756523e+00	1.774066e+00	1.798489e+00	1.815219e+00	1.826418e+00	1.837622e+00	1.847289e+00	1.856022e+00	1.865214e+00	1.874809e+00	1.884500e+00	1.893319e+00	1.901612e+00	1.909519e+00	1.917398e+00	1.925438e+00	1.932975e+00	1.939710e+00	1.944353e+00	1.945468e+00	1.945228e+00	1.944435e+00	1.946425e+00	1.952193e+00	1.962223e+00	1.977697e+00	1.990643e+00	2.002452e+00	2.008445e+00	1.941020e+00	1.432465e+00	1.014556e+00	1.000176e+00	1.000002e+00	1.000000e+00	1.000000e+00	1.000000e+00	1.000000e+00	1.000000e+00	1.000000e+00	1.000000e+00	1.000000e+00	1.000000e+00	1.000000e+00	1.000000e+00	1.000000e+00	1.000000e+00	1.000000e+00	1.000000e+00	1.000000e+00	1.000000e+00	1.000000e+00	1.000000e+00	1.000000e+00	4.000000e+00	4.000000e+00	4.000000e+00	4.000000e+00	4.000000e+00	4.000000e+00	4.000000e+00	4.000000e+00	4.000000e+00	4.000000e+00	4.000000e+00	4.000000e+00	4.000000e+00	4.000000e+00	4.000000e+00	3.999999e+00	3.999995e+00	3.999944e+00	3.999372e+00	3.992822e+00	3.931777e+00	3.825734e+00	3.719888e+00	3.618772e+00	3.522470e+00	3.427578e+00	3.333959e+00	3.240593e+00	3.146881e+00	3.054584e+00	2.964119e+00	2.875440e+00	2.788459e+00	2.703115e+00	2.619360e+00	2.537154e+00	2.456448e+00	2.377209e+00	2.299422e+00	2.223036e+00	2.148005e+00	2.074279e+00	2.001702e+00	1.930310e+00	1.858822e+00	1.799229e+00	1.772796e+00	1.762612e+00	1.760501e+00	1.780339e+00	1.803087e+00	1.817613e+00	1.830047e+00	1.842382e+00	1.853018e+00	1.862315e+00	1.871489e+00	1.880105e+00	1.888317e+00	1.895883e+00	1.903293e+00	1.910334e+00	1.917454e+00	1.924630e+00	1.930732e+00	1.935900e+00	1.938891e+00	1.940897e+00	1.940889e+00	1.942195e+00	1.946230e+00	1.950967e+00	1.960117e+00	1.978139e+00	1.992427e+00	2.004483e+00	2.011435e+00	1.930380e+00	1.383129e+00	1.011390e+00	1.000129e+00	1.000001e+00	1.000000e+00	1.000000e+00	1.000000e+00	1.000000e+00	1.000000e+00	1.000000e+00	1.000000e+00	1.000000e+00	1.000000e+00	1.000000e+00	1.000000e+00	1.000000e+00	1.000000e+00	1.000000e+00	1.000000e+00	1.000000e+00	1.000000e+00	1.000000e+00	1.000000e+00	1.000000e+00	4.000000e+00	4.000000e+00	4.000000e+00	4.000000e+00	4.000000e+00	4.000000e+00	4.000000e+00	4.000000e+00	4.000000e+00	4.000000e+00	4.000000e+00	4.000000e+00	4.000000e+00	4.000000e+00	4.000000e+00	3.999999e+00	3.999993e+00	3.999915e+00	3.998992e+00	3.987834e+00	3.908235e+00	3.801586e+00	3.694940e+00	3.591460e+00	3.494079e+00	3.401362e+00	3.310103e+00	3.220276e+00	3.129703e+00	3.038937e+00	2.949396e+00	2.861563e+00	2.775392e+00	2.690820e+00	2.607804e+00	2.526308e+00	2.446270e+00	2.367641e+00	2.290402e+00	2.214526e+00	2.139979e+00	2.066753e+00	1.994590e+00	1.923693e+00	1.852066e+00	1.796793e+00	1.773238e+00	1.764248e+00	1.765109e+00	1.786622e+00	1.807391e+00	1.819940e+00	1.834338e+00	1.849232e+00	1.862358e+00	1.873235e+00	1.882872e+00	1.890996e+00	1.897839e+00	1.903769e+00	1.909703e+00	1.915380e+00	1.921097e+00	1.925645e+00	1.929422e+00	1.933093e+00	1.936743e+00	1.941291e+00	1.944594e+00	1.950294e+00	1.954179e+00	1.958855e+00	1.968724e+00	1.983010e+00	1.994361e+00	2.005112e+00	2.009105e+00	1.906516e+00	1.332399e+00	1.008931e+00	1.000096e+00	1.000001e+00	1.000000e+00	1.000000e+00	1.000000e+00	1.000000e+00	1.000000e+00	1.000000e+00	1.000000e+00	1.000000e+00	1.000000e+00	1.000000e+00	1.000000e+00	1.000000e+00	1.000000e+00	1.000000e+00	1.000000e+00	1.000000e+00	1.000000e+00	1.000000e+00	1.000000e+00	1.000000e+00	4.000000e+00	4.000000e+00	4.000000e+00	4.000000e+00	4.000000e+00	4.000000e+00	4.000000e+00	4.000000e+00	4.000000e+00	4.000000e+00	4.000000e+00	4.000000e+00	4.000000e+00	4.000000e+00	4.000000e+00	3.999999e+00	3.999987e+00	3.999841e+00	3.998052e+00	3.974926e+00	3.879178e+00	3.771493e+00	3.664916e+00	3.561284e+00	3.463513e+00	3.371422e+00	3.283054e+00	3.195068e+00	3.108312e+00	3.020248e+00	2.932187e+00	2.845279e+00	2.759936e+00	2.676158e+00	2.593928e+00	2.513195e+00	2.433899e+00	2.355975e+00	2.279385e+00	2.204117e+00	2.130138e+00	2.057497e+00	1.985843e+00	1.915452e+00	1.844182e+00	1.793672e+00	1.773401e+00	1.765573e+00	1.770618e+00	1.794098e+00	1.813149e+00	1.824914e+00	1.841162e+00	1.858186e+00	1.873155e+00	1.885271e+00	1.895369e+00	1.903793e+00	1.910170e+00	1.914982e+00	1.919566e+00	1.923401e+00	1.927523e+00	1.931420e+00	1.934300e+00	1.937806e+00	1.943102e+00	1.947286e+00	1.954222e+00	1.959962e+00	1.966655e+00	1.974130e+00	1.983388e+00	1.991652e+00	1.998958e+00	2.004474e+00	1.997860e+00	1.870560e+00	1.283945e+00	1.007016e+00	1.000071e+00	1.000001e+00	1.000000e+00	1.000000e+00	1.000000e+00	1.000000e+00	1.000000e+00	1.000000e+00	1.000000e+00	1.000000e+00	1.000000e+00	1.000000e+00	1.000000e+00	1.000000e+00	1.000000e+00	1.000000e+00	1.000000e+00	1.000000e+00	1.000000e+00	1.000000e+00	1.000000e+00	1.000000e+00	4.000000e+00	4.000000e+00	4.000000e+00	4.000000e+00	4.000000e+00	4.000000e+00	4.000000e+00	4.000000e+00	4.000000e+00	4.000000e+00	4.000000e+00	4.000000e+00	4.000000e+00	4.000000e+00	4.000000e+00	3.999998e+00	3.999972e+00	3.999653e+00	3.995645e+00	3.950603e+00	3.844350e+00	3.734947e+00	3.629160e+00	3.527923e+00	3.431541e+00	3.339976e+00	3.252347e+00	3.166844e+00	3.081728e+00	2.997501e+00	2.912069e+00	2.826637e+00	2.742266e+00	2.659345e+00	2.577926e+00	2.497991e+00	2.419470e+00	2.342314e+00	2.266457e+00	2.191883e+00	2.118555e+00	2.046557e+00	1.975557e+00	1.905639e+00	1.835461e+00	1.790261e+00	1.773191e+00	1.766711e+00	1.777297e+00	1.803125e+00	1.822019e+00	1.833234e+00	1.848226e+00	1.864457e+00	1.879668e+00	1.893194e+00	1.905120e+00	1.914885e+00	1.921816e+00	1.926647e+00	1.930437e+00	1.933419e+00	1.937281e+00	1.940340e+00	1.942316e+00	1.945817e+00	1.949725e+00	1.956132e+00	1.963539e+00	1.971329e+00	1.980567e+00	1.988970e+00	1.996082e+00	1.996857e+00	1.994213e+00	1.993240e+00	1.979809e+00	1.831771e+00	1.235022e+00	1.005124e+00	1.000048e+00	1.000000e+00	1.000000e+00	1.000000e+00	1.000000e+00	1.000000e+00	1.000000e+00	1.000000e+00	1.000000e+00	1.000000e+00	1.000000e+00	1.000000e+00	1.000000e+00	1.000000e+00	1.000000e+00	1.000000e+00	1.000000e+00	1.000000e+00	1.000000e+00	1.000000e+00	1.000000e+00	1.000000e+00	4.000000e+00	4.000000e+00	4.000000e+00	4.000000e+00	4.000000e+00	4.000000e+00	4.000000e+00	4.000000e+00	4.000000e+00	4.000000e+00	4.000000e+00	4.000000e+00	4.000000e+00	4.000000e+00	4.000000e+00	3.999995e+00	3.999933e+00	3.999159e+00	3.989932e+00	3.910307e+00	3.800697e+00	3.691953e+00	3.588976e+00	3.491687e+00	3.398133e+00	3.307420e+00	3.219975e+00	3.135515e+00	3.052112e+00	2.969665e+00	2.887921e+00	2.805139e+00	2.722363e+00	2.640534e+00	2.560024e+00	2.480920e+00	2.403196e+00	2.326827e+00	2.251748e+00	2.177938e+00	2.105357e+00	2.034064e+00	1.963909e+00	1.894467e+00	1.826133e+00	1.786941e+00	1.773240e+00	1.768684e+00	1.786034e+00	1.814042e+00	1.832048e+00	1.840944e+00	1.853049e+00	1.866674e+00	1.880697e+00	1.894143e+00	1.906925e+00	1.919241e+00	1.929850e+00	1.936822e+00	1.942050e+00	1.945485e+00	1.948407e+00	1.950408e+00	1.952982e+00	1.956428e+00	1.959963e+00	1.966202e+00	1.973982e+00	1.982117e+00	1.989189e+00	1.996005e+00	1.995017e+00	1.990662e+00	1.987180e+00	1.983748e+00	1.966742e+00	1.784294e+00	1.188323e+00	1.003480e+00	1.000031e+00	1.000000e+00	1.000000e+00	1.000000e+00	1.000000e+00	1.000000e+00	1.000000e+00	1.000000e+00	1.000000e+00	1.000000e+00	1.000000e+00	1.000000e+00	1.000000e+00	1.000000e+00	1.000000e+00	1.000000e+00	1.000000e+00	1.000000e+00	1.000000e+00	1.000000e+00	1.000000e+00	1.000000e+00	4.000000e+00	4.000000e+00	4.000000e+00	4.000000e+00	4.000000e+00	4.000000e+00	4.000000e+00	4.000000e+00	4.000000e+00	4.000000e+00	4.000000e+00	4.000000e+00	4.000000e+00	4.000000e+00	3.999999e+00	3.999986e+00	3.999819e+00	3.997644e+00	3.968783e+00	3.861738e+00	3.748666e+00	3.643300e+00	3.545622e+00	3.452766e+00	3.362389e+00	3.273532e+00	3.186351e+00	3.101782e+00	3.019848e+00	2.938727e+00	2.858760e+00	2.779555e+00	2.699697e+00	2.619549e+00	2.540263e+00	2.462121e+00	2.385259e+00	2.309721e+00	2.235461e+00	2.162468e+00	2.090722e+00	2.020193e+00	1.951068e+00	1.881950e+00	1.816782e+00	1.784136e+00	1.774087e+00	1.773103e+00	1.796574e+00	1.824193e+00	1.840110e+00	1.846795e+00	1.855854e+00	1.865914e+00	1.877153e+00	1.889657e+00	1.901955e+00	1.914555e+00	1.927013e+00	1.939940e+00	1.950221e+00	1.957171e+00	1.960743e+00	1.963638e+00	1.967322e+00	1.969854e+00	1.975654e+00	1.979271e+00	1.982844e+00	1.986719e+00	1.990975e+00	1.991824e+00	1.987869e+00	1.982844e+00	1.980581e+00	1.977727e+00	1.959152e+00	1.727226e+00	1.137748e+00	1.001898e+00	1.000016e+00	1.000000e+00	1.000000e+00	1.000000e+00	1.000000e+00	1.000000e+00	1.000000e+00	1.000000e+00	1.000000e+00	1.000000e+00	1.000000e+00	1.000000e+00	1.000000e+00	1.000000e+00	1.000000e+00	1.000000e+00	1.000000e+00	1.000000e+00	1.000000e+00	1.000000e+00	1.000000e+00	1.000000e+00	4.000000e+00	4.000000e+00	4.000000e+00	4.000000e+00	4.000000e+00	4.000000e+00	4.000000e+00	4.000000e+00	4.000000e+00	4.000000e+00	4.000000e+00	4.000000e+00	4.000000e+00	4.000000e+00	3.999997e+00	3.999957e+00	3.999429e+00	3.992560e+00	3.920762e+00	3.802696e+00	3.691329e+00	3.591663e+00	3.499590e+00	3.410966e+00	3.323746e+00	3.237364e+00	3.151526e+00	3.067414e+00	2.985492e+00	2.905555e+00	2.826722e+00	2.749032e+00	2.672298e+00	2.595483e+00	2.518194e+00	2.441481e+00	2.365716e+00	2.291131e+00	2.217763e+00	2.145646e+00	2.074822e+00	2.005147e+00	1.937131e+00	1.868365e+00	1.808866e+00	1.783139e+00	1.775835e+00	1.780774e+00	1.805901e+00	1.831841e+00	1.845762e+00	1.850702e+00	1.857314e+00	1.864473e+00	1.872458e+00	1.882001e+00	1.892455e+00	1.903787e+00	1.916085e+00	1.929296e+00	1.945482e+00	1.960969e+00	1.970339e+00	1.975956e+00	1.980533e+00	1.983878e+00	1.985007e+00	1.985317e+00	1.984302e+00	1.984859e+00	1.985618e+00	1.983574e+00	1.978010e+00	1.975431e+00	1.976738e+00	1.975800e+00	1.954205e+00	1.650165e+00	1.087868e+00	1.000847e+00	1.000008e+00	1.000000e+00	1.000000e+00	1.000000e+00	1.000000e+00	1.000000e+00	1.000000e+00	1.000000e+00	1.000000e+00	1.000000e+00	1.000000e+00	1.000000e+00	1.000000e+00	1.000000e+00	1.000000e+00	1.000000e+00	1.000000e+00	1.000000e+00	1.000000e+00	1.000000e+00	1.000000e+00	1.000000e+00	4.000000e+00	4.000000e+00	4.000000e+00	4.000000e+00	4.000000e+00	4.000000e+00	4.000000e+00	4.000000e+00	4.000000e+00	4.000000e+00	4.000000e+00	4.000000e+00	4.000000e+00	3.999999e+00	3.999987e+00	3.999836e+00	3.997751e+00	3.967585e+00	3.851815e+00	3.734966e+00	3.631381e+00	3.538178e+00	3.451011e+00	3.366056e+00	3.281897e+00	3.198179e+00	3.114641e+00	3.031823e+00	2.950225e+00	2.870734e+00	2.792863e+00	2.716350e+00	2.641010e+00	2.566639e+00	2.492611e+00	2.418219e+00	2.344183e+00	2.270905e+00	2.198636e+00	2.127530e+00	2.057733e+00	1.989114e+00	1.922201e+00	1.854691e+00	1.803446e+00	1.784748e+00	1.779539e+00	1.789115e+00	1.812876e+00	1.836420e+00	1.849259e+00	1.853284e+00	1.858297e+00	1.863494e+00	1.869144e+00	1.875838e+00	1.883216e+00	1.890322e+00	1.900510e+00	1.912149e+00	1.925633e+00	1.943114e+00	1.962911e+00	1.981183e+00	1.987908e+00	1.989458e+00	1.988832e+00	1.986702e+00	1.982927e+00	1.980806e+00	1.977982e+00	1.973647e+00	1.968871e+00	1.971261e+00	1.977219e+00	1.982698e+00	1.951163e+00	1.553563e+00	1.038383e+00	1.000352e+00	1.000003e+00	1.000000e+00	1.000000e+00	1.000000e+00	1.000000e+00	1.000000e+00	1.000000e+00	1.000000e+00	1.000000e+00	1.000000e+00	1.000000e+00	1.000000e+00	1.000000e+00	1.000000e+00	1.000000e+00	1.000000e+00	1.000000e+00	1.000000e+00	1.000000e+00	1.000000e+00	1.000000e+00	1.000000e+00	3.999998e+00	3.999999e+00	4.000000e+00	4.000000e+00	4.000000e+00	4.000000e+00	4.000000e+00	4.000000e+00	4.000000e+00	4.000000e+00	4.000000e+00	4.000000e+00	3.999999e+00	3.999993e+00	3.999930e+00	3.999131e+00	3.988534e+00	3.893911e+00	3.774138e+00	3.665654e+00	3.570144e+00	3.482904e+00	3.399831e+00	3.318141e+00	3.236896e+00	3.155872e+00	3.075097e+00	2.994432e+00	2.914219e+00	2.835200e+00	2.757798e+00	2.681986e+00	2.607725e+00	2.534691e+00	2.462694e+00	2.391245e+00	2.319688e+00	2.248382e+00	2.177681e+00	2.107917e+00	2.039347e+00	1.972131e+00	1.906322e+00	1.842562e+00	1.801410e+00	1.788365e+00	1.784889e+00	1.796801e+00	1.817721e+00	1.838595e+00	1.851353e+00	1.855285e+00	1.859319e+00	1.863265e+00	1.867584e+00	1.872609e+00	1.877897e+00	1.882900e+00	1.888393e+00	1.894202e+00	1.903830e+00	1.916238e+00	1.934442e+00	1.955683e+00	1.978491e+00	1.989200e+00	1.991961e+00	1.988908e+00	1.983620e+00	1.979229e+00	1.974002e+00	1.967379e+00	1.966894e+00	1.974186e+00	1.989915e+00	1.994695e+00	1.935479e+00	1.420996e+00	1.013019e+00	1.000146e+00	1.000001e+00	1.000000e+00	1.000000e+00	1.000000e+00	1.000000e+00	1.000000e+00	1.000000e+00	1.000000e+00	1.000000e+00	1.000000e+00	1.000000e+00	1.000000e+00	1.000000e+00	1.000000e+00	1.000000e+00	1.000000e+00	1.000000e+00	1.000000e+00	1.000000e+00	1.000000e+00	1.000000e+00	1.000000e+00	3.999993e+00	3.999997e+00	3.999999e+00	4.000000e+00	4.000000e+00	4.000000e+00	4.000000e+00	4.000000e+00	4.000000e+00	4.000000e+00	3.999999e+00	3.999997e+00	3.999987e+00	3.999930e+00	3.999414e+00	3.993164e+00	3.925431e+00	3.805207e+00	3.694191e+00	3.595979e+00	3.507843e+00	3.425631e+00	3.346188e+00	3.267537e+00	3.189069e+00	3.110678e+00	3.032607e+00	2.954405e+00	2.876702e+00	2.799062e+00	2.722501e+00	2.647170e+00	2.573264e+00	2.500954e+00	2.430191e+00	2.360487e+00	2.291493e+00	2.222666e+00	2.154112e+00	2.086212e+00	2.019253e+00	1.953895e+00	1.889574e+00	1.832314e+00	1.802080e+00	1.792729e+00	1.790607e+00	1.803293e+00	1.821271e+00	1.839520e+00	1.852729e+00	1.857551e+00	1.861646e+00	1.867187e+00	1.873091e+00	1.878969e+00	1.884307e+00	1.889247e+00	1.893284e+00	1.896900e+00	1.898775e+00	1.901385e+00	1.909625e+00	1.922932e+00	1.943874e+00	1.968051e+00	1.984670e+00	1.989486e+00	1.986389e+00	1.981127e+00	1.975844e+00	1.972443e+00	1.979419e+00	1.991332e+00	2.004165e+00	2.004425e+00	1.888022e+00	1.274448e+00	1.005817e+00	1.000052e+00	1.000000e+00	1.000000e+00	1.000000e+00	1.000000e+00	1.000000e+00	1.000000e+00	1.000000e+00	1.000000e+00	1.000000e+00	1.000000e+00	1.000000e+00	1.000000e+00	1.000000e+00	1.000000e+00	1.000000e+00	1.000000e+00	1.000000e+00	1.000000e+00	1.000000e+00	1.000000e+00	1.000000e+00	1.000000e+00	3.999971e+00	3.999988e+00	3.999995e+00	3.999998