# vtk DataFile Version 3.0
vtk output
ASCII
DATASET STRUCTURED_GRID
DIMENSIONS 102 102 1
POINTS 10404 double
0.000000e+00	0.000000e+00	0.0	1.980198e+00	0.000000e+00	0.0	3.960396e+00	0.000000e+00	0.0	5.940594e+00	0.000000e+00	0.0	7.920792e+00	0.000000e+00	0.0	9.900990e+00	0.000000e+00	0.0	1.188119e+01	0.000000e+00	0.0	1.386139e+01	0.000000e+00	0.0	1.584158e+01	0.000000e+00	0.0	1.782178e+01	0.000000e+00	0.0	1.980198e+01	0.000000e+00	0.0	2.178218e+01	0.000000e+00	0.0	2.376238e+01	0.000000e+00	0.0	2.574257e+01	0.000000e+00	0.0	2.772277e+01	0.000000e+00	0.0	2.970297e+01	0.000000e+00	0.0	3.168317e+01	0.000000e+00	0.0	3.366337e+01	0.000000e+00	0.0	3.564356e+01	0.000000e+00	0.0	3.762376e+01	0.000000e+00	0.0	3.960396e+01	0.000000e+00	0.0	4.158416e+01	0.000000e+00	0.0	4.356436e+01	0.000000e+00	0.0	4.554455e+01	0.000000e+00	0.0	4.752475e+01	0.000000e+00	0.0	4.950495e+01	0.000000e+00	0.0	5.148515e+01	0.000000e+00	0.0	5.346535e+01	0.000000e+00	0.0	5.544554e+01	0.000000e+00	0.0	5.742574e+01	0.000000e+00	0.0	5.940594e+01	0.000000e+00	0.0	6.138614e+01	0.000000e+00	0.0	6.336634e+01	0.000000e+00	0.0	6.534653e+01	0.000000e+00	0.0	6.732673e+01	0.000000e+00	0.0	6.930693e+01	0.000000e+00	0.0	7.128713e+01	0.000000e+00	0.0	7.326733e+01	0.000000e+00	0.0	7.524752e+01	0.000000e+00	0.0	7.722772e+01	0.000000e+00	0.0	7.920792e+01	0.000000e+00	0.0	8.118812e+01	0.000000e+00	0.0	8.316832e+01	0.000000e+00	0.0	8.514851e+01	0.000000e+00	0.0	8.712871e+01	0.000000e+00	0.0	8.910891e+01	0.000000e+00	0.0	9.108911e+01	0.000000e+00	0.0	9.306931e+01	0.000000e+00	0.0	9.504950e+01	0.000000e+00	0.0	9.702970e+01	0.000000e+00	0.0	9.900990e+01	0.000000e+00	0.0	1.009901e+02	0.000000e+00	0.0	1.029703e+02	0.000000e+00	0.0	1.049505e+02	0.000000e+00	0.0	1.069307e+02	0.000000e+00	0.0	1.089109e+02	0.000000e+00	0.0	1.108911e+02	0.000000e+00	0.0	1.128713e+02	0.000000e+00	0.0	1.148515e+02	0.000000e+00	0.0	1.168317e+02	0.000000e+00	0.0	1.188119e+02	0.000000e+00	0.0	1.207921e+02	0.000000e+00	0.0	1.227723e+02	0.000000e+00	0.0	1.247525e+02	0.000000e+00	0.0	1.267327e+02	0.000000e+00	0.0	1.287129e+02	0.000000e+00	0.0	1.306931e+02	0.000000e+00	0.0	1.326733e+02	0.000000e+00	0.0	1.346535e+02	0.000000e+00	0.0	1.366337e+02	0.000000e+00	0.0	1.386139e+02	0.000000e+00	0.0	1.405941e+02	0.000000e+00	0.0	1.425743e+02	0.000000e+00	0.0	1.445545e+02	0.000000e+00	0.0	1.465347e+02	0.000000e+00	0.0	1.485149e+02	0.000000e+00	0.0	1.504950e+02	0.000000e+00	0.0	1.524752e+02	0.000000e+00	0.0	1.544554e+02	0.000000e+00	0.0	1.564356e+02	0.000000e+00	0.0	1.584158e+02	0.000000e+00	0.0	1.603960e+02	0.000000e+00	0.0	1.623762e+02	0.000000e+00	0.0	1.643564e+02	0.000000e+00	0.0	1.663366e+02	0.000000e+00	0.0	1.683168e+02	0.000000e+00	0.0	1.702970e+02	0.000000e+00	0.0	1.722772e+02	0.000000e+00	0.0	1.742574e+02	0.000000e+00	0.0	1.762376e+02	0.000000e+00	0.0	1.782178e+02	0.000000e+00	0.0	1.801980e+02	0.000000e+00	0.0	1.821782e+02	0.000000e+00	0.0	1.841584e+02	0.000000e+00	0.0	1.861386e+02	0.000000e+00	0.0	1.881188e+02	0.000000e+00	0.0	1.900990e+02	0.000000e+00	0.0	1.920792e+02	0.000000e+00	0.0	1.940594e+02	0.000000e+00	0.0	1.960396e+02	0.000000e+00	0.0	1.980198e+02	0.000000e+00	0.0	2.000000e+02	0.000000e+00	0.0	0.000000e+00	1.980198e+00	0.0	1.980198e+00	1.980198e+00	0.0	3.960396e+00	1.980198e+00	0.0	5.940594e+00	1.980198e+00	0.0	7.920792e+00	1.980198e+00	0.0	9.900990e+00	1.980198e+00	0.0	1.188119e+01	1.980198e+00	0.0	1.386139e+01	1.980198e+00	0.0	1.584158e+01	1.980198e+00	0.0	1.782178e+01	1.980198e+00	0.0	1.980198e+01	1.980198e+00	0.0	2.178218e+01	1.980198e+00	0.0	2.376238e+01	1.980198e+00	0.0	2.574257e+01	1.980198e+00	0.0	2.772277e+01	1.980198e+00	0.0	2.970297e+01	1.980198e+00	0.0	3.168317e+01	1.980198e+00	0.0	3.366337e+01	1.980198e+00	0.0	3.564356e+01	1.980198e+00	0.0	3.762376e+01	1.980198e+00	0.0	3.960396e+01	1.980198e+00	0.0	4.158416e+01	1.980198e+00	0.0	4.356436e+01	1.980198e+00	0.0	4.554455e+01	1.980198e+00	0.0	4.752475e+01	1.980198e+00	0.0	4.950495e+01	1.980198e+00	0.0	5.148515e+01	1.980198e+00	0.0	5.346535e+01	1.980198e+00	0.0	5.544554e+01	1.980198e+00	0.0	5.742574e+01	1.980198e+00	0.0	5.940594e+01	1.980198e+00	0.0	6.138614e+01	1.980198e+00	0.0	6.336634e+01	1.980198e+00	0.0	6.534653e+01	1.980198e+00	0.0	6.732673e+01	1.980198e+00	0.0	6.930693e+01	1.980198e+00	0.0	7.128713e+01	1.980198e+00	0.0	7.326733e+01	1.980198e+00	0.0	7.524752e+01	1.980198e+00	0.0	7.722772e+01	1.980198e+00	0.0	7.920792e+01	1.980198e+00	0.0	8.118812e+01	1.980198e+00	0.0	8.316832e+01	1.980198e+00	0.0	8.514851e+01	1.980198e+00	0.0	8.712871e+01	1.980198e+00	0.0	8.910891e+01	1.980198e+00	0.0	9.108911e+01	1.980198e+00	0.0	9.306931e+01	1.980198e+00	0.0	9.504950e+01	1.980198e+00	0.0	9.702970e+01	1.980198e+00	0.0	9.900990e+01	1.980198e+00	0.0	1.009901e+02	1.980198e+00	0.0	1.029703e+02	1.980198e+00	0.0	1.049505e+02	1.980198e+00	0.0	1.069307e+02	1.980198e+00	0.0	1.089109e+02	1.980198e+00	0.0	1.108911e+02	1.980198e+00	0.0	1.128713e+02	1.980198e+00	0.0	1.148515e+02	1.980198e+00	0.0	1.168317e+02	1.980198e+00	0.0	1.188119e+02	1.980198e+00	0.0	1.207921e+02	1.980198e+00	0.0	1.227723e+02	1.980198e+00	0.0	1.247525e+02	1.980198e+00	0.0	1.267327e+02	1.980198e+00	0.0	1.287129e+02	1.980198e+00	0.0	1.306931e+02	1.980198e+00	0.0	1.326733e+02	1.980198e+00	0.0	1.346535e+02	1.980198e+00	0.0	1.366337e+02	1.980198e+00	0.0	1.386139e+02	1.980198e+00	0.0	1.405941e+02	1.980198e+00	0.0	1.425743e+02	1.980198e+00	0.0	1.445545e+02	1.980198e+00	0.0	1.465347e+02	1.980198e+00	0.0	1.485149e+02	1.980198e+00	0.0	1.504950e+02	1.980198e+00	0.0	1.524752e+02	1.980198e+00	0.0	1.544554e+02	1.980198e+00	0.0	1.564356e+02	1.980198e+00	0.0	1.584158e+02	1.980198e+00	0.0	1.603960e+02	1.980198e+00	0.0	1.623762e+02	1.980198e+00	0.0	1.643564e+02	1.980198e+00	0.0	1.663366e+02	1.980198e+00	0.0	1.683168e+02	1.980198e+00	0.0	1.702970e+02	1.980198e+00	0.0	1.722772e+02	1.980198e+00	0.0	1.742574e+02	1.980198e+00	0.0	1.762376e+02	1.980198e+00	0.0	1.782178e+02	1.980198e+00	0.0	1.801980e+02	1.980198e+00	0.0	1.821782e+02	1.980198e+00	0.0	1.841584e+02	1.980198e+00	0.0	1.861386e+02	1.980198e+00	0.0	1.881188e+02	1.980198e+00	0.0	1.900990e+02	1.980198e+00	0.0	1.920792e+02	1.980198e+00	0.0	1.940594e+02	1.980198e+00	0.0	1.960396e+02	1.980198e+00	0.0	1.980198e+02	1.980198e+00	0.0	2.000000e+02	1.980198e+00	0.0	0.000000e+00	3.960396e+00	0.0	1.980198e+00	3.960396e+00	0.0	3.960396e+00	3.960396e+00	0.0	5.940594e+00	3.960396e+00	0.0	7.920792e+00	3.960396e+00	0.0	9.900990e+00	3.960396e+00	0.0	1.188119e+01	3.960396e+00	0.0	1.386139e+01	3.960396e+00	0.0	1.584158e+01	3.960396e+00	0.0	1.782178e+01	3.960396e+00	0.0	1.980198e+01	3.960396e+00	0.0	2.178218e+01	3.960396e+00	0.0	2.376238e+01	3.960396e+00	0.0	2.574257e+01	3.960396e+00	0.0	2.772277e+01	3.960396e+00	0.0	2.970297e+01	3.960396e+00	0.0	3.168317e+01	3.960396e+00	0.0	3.366337e+01	3.960396e+00	0.0	3.564356e+01	3.960396e+00	0.0	3.762376e+01	3.960396e+00	0.0	3.960396e+01	3.960396e+00	0.0	4.158416e+01	3.960396e+00	0.0	4.356436e+01	3.960396e+00	0.0	4.554455e+01	3.960396e+00	0.0	4.752475e+01	3.960396e+00	0.0	4.950495e+01	3.960396e+00	0.0	5.148515e+01	3.960396e+00	0.0	5.346535e+01	3.960396e+00	0.0	5.544554e+01	3.960396e+00	0.0	5.742574e+01	3.960396e+00	0.0	5.940594e+01	3.960396e+00	0.0	6.138614e+01	3.960396e+00	0.0	6.336634e+01	3.960396e+00	0.0	6.534653e+01	3.960396e+00	0.0	6.732673e+01	3.960396e+00	0.0	6.930693e+01	3.960396e+00	0.0	7.128713e+01	3.960396e+00	0.0	7.326733e+01	3.960396e+00	0.0	7.524752e+01	3.960396e+00	0.0	7.722772e+01	3.960396e+00	0.0	7.920792e+01	3.960396e+00	0.0	8.118812e+01	3.960396e+00	0.0	8.316832e+01	3.960396e+00	0.0	8.514851e+01	3.960396e+00	0.0	8.712871e+01	3.960396e+00	0.0	8.910891e+01	3.960396e+00	0.0	9.108911e+01	3.960396e+00	0.0	9.306931e+01	3.960396e+00	0.0	9.504950e+01	3.960396e+00	0.0	9.702970e+01	3.960396e+00	0.0	9.900990e+01	3.960396e+00	0.0	1.009901e+02	3.960396e+00	0.0	1.029703e+02	3.960396e+00	0.0	1.049505e+02	3.960396e+00	0.0	1.069307e+02	3.960396e+00	0.0	1.089109e+02	3.960396e+00	0.0	1.108911e+02	3.960396e+00	0.0	1.128713e+02	3.960396e+00	0.0	1.148515e+02	3.960396e+00	0.0	1.168317e+02	3.960396e+00	0.0	1.188119e+02	3.960396e+00	0.0	1.207921e+02	3.960396e+00	0.0	1.227723e+02	3.960396e+00	0.0	1.247525e+02	3.960396e+00	0.0	1.267327e+02	3.960396e+00	0.0	1.287129e+02	3.960396e+00	0.0	1.306931e+02	3.960396e+00	0.0	1.326733e+02	3.960396e+00	0.0	1.346535e+02	3.960396e+00	0.0	1.366337e+02	3.960396e+00	0.0	1.386139e+02	3.960396e+00	0.0	1.405941e+02	3.960396e+00	0.0	1.425743e+02	3.960396e+00	0.0	1.445545e+02	3.960396e+00	0.0	1.465347e+02	3.960396e+00	0.0	1.485149e+02	3.960396e+00	0.0	1.504950e+02	3.960396e+00	0.0	1.524752e+02	3.960396e+00	0.0	1.544554e+02	3.960396e+00	0.0	1.564356e+02	3.960396e+00	0.0	1.584158e+02	3.960396e+00	0.0	1.603960e+02	3.960396e+00	0.0	1.623762e+02	3.960396e+00	0.0	1.643564e+02	3.960396e+00	0.0	1.663366e+02	3.960396e+00	0.0	1.683168e+02	3.960396e+00	0.0	1.702970e+02	3.960396e+00	0.0	1.722772e+02	3.960396e+00	0.0	1.742574e+02	3.960396e+00	0.0	1.762376e+02	3.960396e+00	0.0	1.782178e+02	3.960396e+00	0.0	1.801980e+02	3.960396e+00	0.0	1.821782e+02	3.960396e+00	0.0	1.841584e+02	3.960396e+00	0.0	1.861386e+02	3.960396e+00	0.0	1.881188e+02	3.960396e+00	0.0	1.900990e+02	3.960396e+00	0.0	1.920792e+02	3.960396e+00	0.0	1.940594e+02	3.960396e+00	0.0	1.960396e+02	3.960396e+00	0.0	1.980198e+02	3.960396e+00	0.0	2.000000e+02	3.960396e+00	0.0	0.000000e+00	5.940594e+00	0.0	1.980198e+00	5.940594e+00	0.0	3.960396e+00	5.940594e+00	0.0	5.940594e+00	5.940594e+00	0.0	7.920792e+00	5.940594e+00	0.0	9.900990e+00	5.940594e+00	0.0	1.188119e+01	5.940594e+00	0.0	1.386139e+01	5.940594e+00	0.0	1.584158e+01	5.940594e+00	0.0	1.782178e+01	5.940594e+00	0.0	1.980198e+01	5.940594e+00	0.0	2.178218e+01	5.940594e+00	0.0	2.376238e+01	5.940594e+00	0.0	2.574257e+01	5.940594e+00	0.0	2.772277e+01	5.940594e+00	0.0	2.970297e+01	5.940594e+00	0.0	3.168317e+01	5.940594e+00	0.0	3.366337e+01	5.940594e+00	0.0	3.564356e+01	5.940594e+00	0.0	3.762376e+01	5.940594e+00	0.0	3.960396e+01	5.940594e+00	0.0	4.158416e+01	5.940594e+00	0.0	4.356436e+01	5.940594e+00	0.0	4.554455e+01	5.940594
[...]
POINT_DATA 10404

SCALARS Height double 1
LOOKUP_TABLE default
4.000000e+00	4.000000e+00	4.000000e+00	4.000000e+00	4.000000e+00	4.000000e+00	4.000000e+00	4.000000e+00	4.000000e+00	4.000000e+00	4.000000e+00	4.000000e+00	4.000000e+00	4.000000e+00	4.000000e+00	4.000000e+00	3.999999e+00	3.999996e+00	3.999984e+00	3.999932e+00	3.999708e+00	3.998740e+00	3.994552e+00	3.975955e+00	3.915760e+00	3.825677e+00	3.723262e+00	3.615302e+00	3.504998e+00	3.394548e+00	3.285398e+00	3.178203e+00	3.073299e+00	2.970678e+00	2.870195e+00	2.771818e+00	2.675478e+00	2.581131e+00	2.488744e+00	2.398206e+00	2.309446e+00	2.222369e+00	2.136892e+00	2.052896e+00	1.970227e+00	1.888403e+00	1.835647e+00	1.814676e+00	1.806530e+00	1.809162e+00	1.833132e+00	1.855082e+00	1.865820e+00	1.877886e+00	1.891304e+00	1.904009e+00	1.916424e+00	1.927853e+00	1.938131e+00	1.946948e+00	1.954894e+00	1.963611e+00	1.972745e+00	1.982497e+00	1.991169e+00	1.996188e+00	1.997022e+00	1.994479e+00	1.989322e+00	1.983205e+00	1.979756e+00	1.985577e+00	1.995345e+00	1.996616e+00	1.928044e+00	1.536951e+00	1.070774e+00	1.002139e+00	1.000056e+00	1.000001e+00	1.000000e+00	1.000000e+00	1.000000e+00	1.000000e+00	1.000000e+00	1.000000e+00	1.000000e+00	1.000000e+00	1.000000e+00	1.000000e+00	1.000000e+00	1.000000e+00	1.000000e+00	1.000000e+00	1.000000e+00	1.000000e+00	1.000000e+00	1.000000e+00	1.000000e+00	1.000000e+00	1.000000e+00	1.000000e+00	4.000000e+00	4.000000e+00	4.000000e+00	4.000000e+00	4.000000e+00	4.000000e+00	4.000000e+00	4.000000e+00	4.000000e+00	4.000000e+00	4.000000e+00	4.000000e+00	4.000000e+00	4.000000e+00	4.000000e+00	4.000000e+00	4.000000e+00	3.999999e+00	3.999994e+00	3.999973e+00	3.999879e+00	3.999449e+00	3.997229e+00	3.982165e+00	3.914012e+00	3.823060e+00	3.721789e+00	3.615339e+00	3.505982e+00	3.396279e+00	3.287877e+00	3.181538e+00	3.077253e+00	2.975158e+00	2.875201e+00	2.777280e+00	2.681325e+00	2.587306e+00	2.495159e+00	2.404825e+00	2.316265e+00	2.229369e+00	2.144044e+00	2.060159e+00	1.977573e+00	1.895902e+00	1.843393e+00	1.822394e+00	1.814159e+00	1.816168e+00	1.840076e+00	1.861963e+00	1.872465e+00	1.883448e+00	1.895392e+00	1.906948e+00	1.918841e+00	1.930286e+00	1.940699e+00	1.949730e+00	1.957922e+00	1.966497e+00	1.975094e+00	1.983764e+00	1.991712e+00	1.996718e+00	1.999151e+00	1.998878e+00	1.994582e+00	1.989544e+00	1.986448e+00	1.992644e+00	2.001009e+00	2.003358e+00	1.952577e+00	1.516326e+00	1.026053e+00	1.000359e+00	1.000005e+00	1.000000e+00	1.000000e+00	1.000000e+00	1.000000e+00	1.000000e+00	1.000000e+00	1.000000e+00	1.000000e+00	1.000000e+00	1.000000e+00	1.000000e+00	1.000000e+00	1.000000e+00	1.000000e+00	1.000000e+00	1.000000e+00	1.000000e+00	1.000000e+00	1.000000e+00	1.000000e+00	1.000000e+00	1.000000e+00	1.000000e+00	4.000000e+00	4.000000e+00	4.000000e+00	4.000000e+00	4.000000e+00	4.000000e+00	4.000000e+00	4.000000e+00	4.000000e+00	4.000000e+00	4.000000e+00	4.000000e+00	4.000000e+00	4.000000e+00	4.000000e+00	4.000000e+00	4.000000e+00	3.999999e+00	3.999997e+00	3.999988e+00	3.999945e+00	3.999711e+00	3.998120e+00	3.983574e+00	3.908666e+00	3.811812e+00	3.709084e+00	3.602314e+00	3.493306e+00	3.383186e+00	3.274341e+00	3.167458e+00	3.063057e+00	2.960795e+00	2.860765e+00	2.762816e+00	2.666867e+00	2.572854e+00	2.480751e+00	2.390555e+00	2.302116e+00	2.215335e+00	2.130091e+00	2.046254e+00	1.963721e+00	1.882377e+00	1.831769e+00	1.811465e+00	1.803411e+00	1.806975e+00	1.830778e+00	1.852166e+00	1.863917e+00	1.875406e+00	1.886500e+00	1.896141e+00	1.905917e+00	1.915659e+00	1.925253e+00	1.933943e+00	1.942265e+00	1.950435e+00	1.957995e+00	1.964423e+00	1.972040e+00	1.979296e+00	1.985398e+00	1.990794e+00	1.993345e+00	1.994089e+00	1.996443e+00	1.999442e+00	2.003726e+00	2.003321e+00	1.944572e+00	1.480220e+00	1.018240e+00	1.000238e+00	1.000002e+00	1.000000e+00	1.000000e+00	1.000000e+00	1.000000e+00	1.000000e+00	1.000000e+00	1.000000e+00	1.000000e+00	1.000000e+00	1.000000e+00	1.000000e+00	1.000000e+00	1.000000e+00	1.000000e+00	1.000000e+00	1.000000e+00	1.000000e+00	1.000000e+00	1.000000e+00	1.000000e+00	1.000000e+00	1.000000e+00	1.000000e+00	4.000000e+00	4.000000e+00	4.000000e+00	4.000000e+00	4.000000e+00	4.000000e+00	4.000000e+00	4.000000e+00	4.000000e+00	4.000000e+00	4.000000e+00	4.000000e+00	4.000000e+00	4.000000e+00	4.000000e+00	4.000000e+00	4.000000e+00	4.000000e+00	3.999999e+00	3.999995e+00	3.999974e+00	3.999820e+00	3.998466e+00	3.983541e+00	3.902087e+00	3.798179e+00	3.693255e+00	3.587317e+00	3.480900e+00	3.373861e+00	3.266526e+00	3.160929e+00	3.057593e+00	2.956487e+00	2.857469e+00	2.760437e+00	2.665292e+00	2.571991e+00	2.480490e+00	2.390736e+00	2.302654e+00	2.216181e+00	2.131200e+00	2.047574e+00	1.965269e+00	1.884537e+00	1.835933e+00	1.816103e+00	1.808034e+00	1.812634e+00	1.835846e+00	1.855893e+00	1.868116e+00	1.879641e+00	1.889687e+00	1.897820e+00	1.905961e+00	1.914161e+00	1.922220e+00	1.929579e+00	1.936544e+00	1.943178e+00	1.949241e+00	1.954231e+00	1.959251e+00	1.965491e+00	1.973369e+00	1.982628e+00	1.994487e+00	2.004329e+00	2.010187e+00	2.013606e+00	2.017520e+00	2.015275e+00	1.941328e+00	1.432665e+00	1.014905e+00	1.000186e+00	1.000002e+00	1.000000e+00	1.000000e+00	1.000000e+00	1.000000e+00	1.000000e+00	1.000000e+00	1.000000e+00	1.000000e+00	1.000000e+00	1.000000e+00	1.000000e+00	1.000000e+00	1.000000e+00	1.000000e+00	1.000000e+00	1.000000e+00	1.000000e+00	1.000000e+00	1.000000e+00	1.000000e+00	1.000000e+00	1.000000e+00	1.000000e+00	4.000000e+00	4.000000e+00	4.000000e+00	4.000000e+00	4.000000e+00	4.000000e+00	4.000000e+00	4.000000e+00	4.000000e+00	4.000000e+00	4.000000e+00	4.000000e+00	4.000000e+00	4.000000e+00	4.000000e+00	4.000000e+00	4.000000e+00	4.000000e+00	4.000000e+00	3.999998e+00	3.999984e+00	3.999849e+00	3.998408e+00	3.981023e+00	3.891137e+00	3.781152e+00	3.672632e+00	3.567712e+00	3.463014e+00	3.358761e+00	3.254081e+00	3.149728e+00	3.047085e+00	2.946720e+00	2.848408e+00	2.752044e+00	2.657535e+00	2.564817e+00	2.473859e+00	2.384587e+00	2.296931e+00	2.210831e+00	2.126188e+00	2.042843e+00	1.960845e+00	1.881002e+00	1.835503e+00	1.816719e+00	1.808857e+00	1.815480e+00	1.837857e+00	1.855690e+00	1.867897e+00	1.879724e+00	1.889576e+00	1.897535e+00	1.905222e+00	1.912816e+00	1.920126e+00	1.926909e+00	1.933153e+00	1.938701e+00	1.943229e+00	1.947528e+00	1.952442e+00	1.959001e+00	1.969867e+00	1.982505e+00	1.995304e+00	2.010662e+00	2.023459e+00	2.029017e+00	2.032395e+00	2.025575e+00	1.926977e+00	1.376697e+00	1.011715e+00	1.000141e+00	1.000001e+00	1.000000e+00	1.000000e+00	1.000000e+00	1.000000e+00	1.000000e+00	1.000000e+00	1.000000e+00	1.000000e+00	1.000000e+00	1.000000e+00	1.000000e+00	1.000000e+00	1.000000e+00	1.000000e+00	1.000000e+00	1.000000e+00	1.000000e+00	1.000000e+00	1.000000e+00	1.000000e+00	1.000000e+00	1.000000e+00	1.000000e+00	4.000000e+00	4.000000e+00	4.000000e+00	4.000000e+00	4.000000e+00	4.000000e+00	4.000000e+00	4.000000e+00	4.000000e+00	4.000000e+00	4.000000e+00	4.000000e+00	4.000000e+00	4.000000e+00	4.000000e+00	4.000000e+00	4.000000e+00	4.000000e+00	4.000000e+00	3.999998e+00	3.999983e+00	3.999814e+00	3.997904e+00	3.974299e+00	3.874464e+00	3.761116e+00	3.650103e+00	3.543506e+00	3.440932e+00	3.338707e+00	3.237449e+00	3.135661e+00	3.034216e+00	2.934519e+00	2.836868e+00	2.741171e+00	2.647328e+00	2.555252e+00	2.464911e+00	2.376217e+00	2.289109e+00	2.203500e+00	2.119314e+00	2.036384e+00	1.954660e+00	1.876298e+00	1.834883e+00	1.817810e+00	1.810687e+00	1.821513e+00	1.842508e+00	1.855856e+00	1.867106e+00	1.879097e+00	1.889500e+00	1.897979e+00	1.905911e+00	1.913741e+00	1.921119e+00	1.927635e+00	1.933876e+00	1.939542e+00	1.945133e+00	1.951667e+00	1.957765e+00	1.964509e+00	1.971706e+00	1.982708e+00	1.996260e+00	2.016691e+00	2.030194e+00	2.034137e+00	2.036392e+00	2.024577e+00	1.904033e+00	1.332115e+00	1.009500e+00	1.000108e+00	1.000001e+00	1.000000e+00	1.000000e+00	1.000000e+00	1.000000e+00	1.000000e+00	1.000000e+00	1.000000e+00	1.000000e+00	1.000000e+00	1.000000e+00	1.000000e+00	1.000000e+00	1.000000e+00	1.000000e+00	1.000000e+00	1.000000e+00	1.000000e+00	1.000000e+00	1.000000e+00	1.000000e+00	1.000000e+00	1.000000e+00	1.000000e+00	4.000000e+00	4.000000e+00	4.000000e+00	4.000000e+00	4.000000e+00	4.000000e+00	4.000000e+00	4.000000e+00	4.000000e+00	4.000000e+00	4.000000e+00	4.000000e+00	4.000000e+00	4.000000e+00	4.000000e+00	4.000000e+00	4.000000e+00	4.000000e+00	4.000000e+00	3.999998e+00	3.999976e+00	3.999725e+00	3.996741e+00	3.960699e+00	3.851897e+00	3.737582e+00	3.625390e+00	3.517415e+00	3.414190e+00	3.314707e+00	3.215569e+00	3.117636e+00	3.018632e+00	2.920052e+00	2.823082e+00	2.728023e+00	2.634827e+00	2.543429e+00	2.453735e+00	2.365663e+00	2.279167e+00	2.194143e+00	2.110525e+00	2.028143e+00	1.946491e+00	1.870801e+00	1.833696e+00	1.818899e+00	1.813512e+00	1.828703e+00	1.848162e+00	1.856397e+00	1.866240e+00	1.878388e+00	1.889870e+00	1.899707e+00	1.908631e+00	1.917173e+00	1.925262e+00	1.931988e+00	1.938655e+00	1.945326e+00	1.952453e+00	1.960398e+00	1.967349e+00	1.970936e+00	1.977668e+00	1.987352e+00	2.000376e+00	2.012162e+00	2.018778e+00	2.023872e+00	2.026474e+00	2.013905e+00	1.882281e+00	1.294425e+00	1.007565e+00	1.000079e+00	1.000001e+00	1.000000e+00	1.000000e+00	1.000000e+00	1.000000e+00	1.000000e+00	1.000000e+00	1.000000e+00	1.000000e+00	1.000000e+00	1.000000e+00	1.000000e+00	1.000000e+00	1.000000e+00	1.000000e+00	1.000000e+00	1.000000e+00	1.000000e+00	1.000000e+00	1.000000e+00	1.000000e+00	1.000000e+00	1.000000e+00	1.000000e+00	4.000000e+00	4.000000e+00	4.000000e+00	4.000000e+00	4.000000e+00	4.000000e+00	4.000000e+00	4.000000e+00	4.000000e+00	4.000000e+00	4.000000e+00	4.000000e+00	4.000000e+00	4.000000e+00	4.000000e+00	4.000000e+00	4.000000e+00	4.000000e+00	4.000000e+00	3.999996e+00	3.999959e+00	3.999509e+00	3.994081e+00	3.937279e+00	3.824500e+00	3.710068e+00	3.597691e+00	3.489319e+00	3.385490e+00	3.286671e+00	3.190080e+00	3.093982e+00	2.999092e+00	2.902938e+00	2.807128e+00	2.712795e+00	2.620280e+00	2.529539e+00	2.440514e+00	2.353103e+00	2.267261e+00	2.182904e+00	2.099949e+00	2.018217e+00	1.936634e+00	1.864832e+00	1.832208e+00	1.819914e+00	1.816942e+00	1.836138e+00	1.854421e+00	1.860286e+00	1.867920e+00	1.879825e+00	1.892942e+00	1.904666e+00	1.914759e+00	1.923802e+00	1.932461e+00	1.939558e+00	1.946437e+00	1.953773e+00	1.961654e+00	1.969300e+00	1.976595e+00	1.981945e+00	1.990613e+00	1.995615e+00	1.998351e+00	2.001769e+00	2.004726e+00	2.008049e+00	2.010151e+00	2.000646e+00	1.860291e+00	1.255484e+00	1.005658e+00	1.000052e+00	1.000000e+00	1.000000e+00	1.000000e+00	1.000000e+00	1.000000e+00	1.000000e+00	1.000000e+00	1.000000e+00	1.000000e+00	1.000000e+00	1.000000e+00	1.000000e+00	1.000000e+00	1.000000e+00	1.000000e+00	1.000000e+00	1.000000e+00	1.000000e+00	1.000000e+00	1.000000e+00	1.000000e+00	1.000000e+00	1.000000e+00	1.000000e+00	4.000000e+00	4.000000e+00	4.000000e+00	4.000000e+00	4.000000e+00	4.000000e+00	4.000000e+00	4.000000e+00	4.000000e+00	4.000000e+00	4.000000e+00	4.000000e+00	4.000000e+00	4.000000e+00	4.000000e+00	4.000000e+00	4.000000e+00	4.000000e+00	3.999999e+00	3.999993e+00	3.999918e+00	3.999004e+00	3.987777e+00	3.903704e+00	3.790961e+00	3.678004e+00	3.566384e+00	3.459044e+00	3.355549e+00	3.256524e+00	3.161054e+00	3.067004e+00	2.973747e+00	2.881688e+00	2.788541e+00	2.695547e+00	2.603890e+00	2.513855e+00	2.425515e+00	2.338760e+00	2.253593e+00	2.169957e+00	2.087738e+00	2.006829e+00	1.925284e+00	1.858712e+00	1.830581e+00	1.820580e+00	1.820771e+00	1.843362e+00	1.861837e+00	1.867943e+00	1.875994e+00	1.886968e+00	1.899026e+00	1.911458e+00	1.922532e+00	1.932335e+00	1.941622e+00	1.948618e+00	1.955867e+00	1.963383e+00	1.971085e+00	1.978364e+00	1.984871e+00	1.990871e+00	1.993546e+00	1.994594e+00	1.994063e+00	1.991388e+00	1.989627e+00	1.994628e+00	1.998529e+00	1.991957e+00	1.830761e+00	1.208030e+00	1.003942e+00	1.000033e+00	1.000000e+00	1.000000e+00	1.000000e+00	1.000000e+00	1.000000e+00	1.000000e+00	1.000000e+00	1.000000e+00	1.000000e+00	1.000000e+00	1.000000e+00	1.000000e+00	1.000000e+00	1.000000e+00	1.000000e+00	1.000000e+00	1.000000e+00	1.000000e+00	1.000000e+00	1.000000e+00	1.000000e+00	1.000000e+00	1.000000e+00	1.000000e+00	4.000000e+00	4.000000e+00	4.000000e+00	4.000000e+00	4.000000e+00	4.000000e+00	4.000000e+00	4.000000e+00	4.000000e+00	4.000000e+00	4.000000e+00	4.000000e+00	4.000000e+00	4.000000e+00	4.000000e+00	4.000000e+00	4.000000e+00	4.000000e+00	3.999999e+00	3.999985e+00	3.999817e+00	3.997703e+00	3.970294e+00	3.865977e+00	3.751677e+00	3.640035e+00	3.531363e+00	3.426377e+00	3.324348e+00	3.225418e+00	3.129833e+00	3.037057e+00	2.945298e+00	2.854744e+00	2.765469e+00	2.675714e+00	2.585503e+00	2.496473e+00	2.408903e+00	2.322889e+00	2.238455e+00	2.155610e+00	2.074159e+00	1.994253e+00	1.913113e+00	1.852785e+00	1.828960e+00	1.820989e+00	1.825967e+00	1.851791e+00	1.872388e+00	1.880679e+00	1.889193e+00	1.898777e+00	1.908243e+00	1.918063e+00	1.928223e+00	1.938601e+00	1.948066e+00	1.954904e+00	1.962335e+00	1.968596e+00	1.975316e+00	1.980593e+00	1.984296e+00	1.985960e+00	1.987751e+00	1.989160e+00	1.987451e+00	1.983566e+00	1.980704e+00	1.986316e+00	1.996116e+00	1.990402e+00	1.779097e+00	1.156685e+00	1.002215e+00	1.000017e+00	1.000000e+00	1.000000e+00	1.000000e+00	1.000000e+00	1.000000e+00	1.000000e+00	1.000000e+00	1.000000e+00	1.000000e+00	1.000000e+00	1.000000e+00	1.000000e+00	1.000000e+00	1.000000e+00	1.000000e+00	1.000000e+00	1.000000e+00	1.000000e+00	1.000000e+00	1.000000e+00	1.000000e+00	1.000000e+00	1.000000e+00	1.000000e+00	4.000000e+00	4.000000e+00	4.000000e+00	4.000000e+00	4.000000e+00	4.000000e+00	4.000000e+00	4.000000e+00	4.000000e+00	4.000000e+00	4.000000e+00	4.000000e+00	4.000000e+00	4.000000e+00	4.000000e+00	4.000000e+00	4.000000e+00	4.000000e+00	3.999997e+00	3.999964e+00	3.999549e+00	3.994291e+00	3.936639e+00	3.822460e+00	3.707025e+00	3.597223e+00	3.492297e+00	3.390916e+00	3.291573e+00	3.193643e+00	3.097851e+00	3.004676e+00	2.914203e+00	2.824899e+00	2.736938e+00	2.650346e+00	2.564046e+00	2.477031e+00	2.390683e+00	2.305610e+00	2.222018e+00	2.140067e+00	2.059516e+00	1.980714e+00	1.901118e+00	1.847673e+00	1.828553e+00	1.822374e+00	1.833803e+00	1.863114e+00	1.885331e+00	1.894437e+00	1.903020e+00	1.911823e+00	1.919713e+00	1.927702e+00	1.935544e+00	1.942754e+00	1.950213e+00	1.956810e+00	1.962889e+00	1.967138e+00	1.970445e+00	1.971894e+00	1.975991e+00	1.979164e+00	1.982422e+00	1.983823e+00	1.980888e+00	1.976558e+00	1.978741e+00	1.990701e+00	2.004916e+00	1.991705e+00	1.701451e+00	1.102657e+00	1.001044e+00	1.000009e+00	1.000000e+00	1.000000e+00	1.000000e+00	1.000000e+00	1.000000e+00	1.000000e+00	1.000000e+00	1.000000e+00	1.000000e+00	1.000000e+00	1.000000e+00	1.000000e+00	1.000000e+00	1.000000e+00	1.000000e+00	1.000000e+00	1.000000e+00	1.000000e+00	1.000000e+00	1.000000e+00	1.000000e+00	1.000000e+00	1.000000e+00	1.000000e+00	4.000000e+00	4.000000e+00	4.000000e+00	4.000000e+00	4.000000e+00	4.000000e+00	4.000000e+00	4.000000e+00	4.000000e+00	4.000000e+00	4.000000e+00	4.000000e+00	4.000000e+00	4.000000e+00	4.000000e+00	4.000000e+00	4.000000e+00	3.999999e+00	3.999992e+00	3.999903e+00	3.998773e+00	3.983293e+00	3.887655e+00	3.770531e+00	3.657371e+00	3.550997e+00	3.450151e+00	3.352364e+00	3.256024e+00	3.160315e+00	3.065594e+00	2.972441e+00	2.881636e+00	2.793086e+00	2.706120e+00	2.620627e+00	2.536465e+00	2.453256e+00	2.369790e+00	2.286381e+00	2.204084e+00	2.123236e+00	2.043884e+00	1.966258e+00	1.889887e+00	1.844611e+00	1.830120e+00	1.826674e+00	1.845047e+00	1.873811e+00	1.895722e+00	1.904649e+00	1.912818e+00	1.922147e+00	1.930242e+00	1.937985e+00	1.945219e+00	1.951073e+00	1.955784e+00	1.959345e+00	1.962272e+00	1.965443e+00	1.967351e+00	1.967959e+00	1.972300e+00	1.975312e+00	1.978123e+00	1.977510e+00	1.975304e+00	1.977917e+00	1.989585e+00	2.006683e+00	2.015315e+00	1.986819e+00	1.600044e+00	1.049232e+00	1.000417e+00	1.000004e+00	1.000000e+00	1.000000e+00	1.000000e+00	1.000000e+00	1.000000e+00	1.000000e+00	1.000000e+00	1.000000e+00	1.000000e+00	1.000000e+00	1.000000e+00	1.000000e+00	1.000000e+00	1.000000e+00	1.000000e+00	1.000000e+00	1.000000e+00	1.000000e+00	1.000000e+00	1.000000e+00	1.000000e+00	1.000000e+00	1.000000e+00	1.000000e+00	4.000000e+00	4.000000e+00	4.000000e+00	4.000000e+00	4.000000e+00	4.000000e+00	4.000000e+00	4.000000e+00	4.000000e+00	4.000000e+00	4.000000e+00	4.000000e+00	4.000000e+00	4.000000e+00	4.000000e+00	4.000000e+00	4.000000e+00	3.999998e+00	3.999978e+00	3.999710e+00	3.996127e+00	3.950930e+00	3.831590e+00	3.712891e+00	3.603727e+00	3.502420e+00	3.405435e+00	3.310726e+00	3.217216e+00	3.124328e+00	3.031564e+00	2.939584e+00	2.848785e+00	2.760261e+00	2.673892e+00	2.589264e+00	2.506201e+00	2.424437e+00	2.343704e+00	2.263559e+00	2.183521e+00	2.104403e+00	2.026840e+00	1.950449e+00	1.879807e+00	1.844437e+00	1.834500e+00	1.835177e+00	1.855583e+00	1.881242e+00	1.901893e+00	1.910385e+00	1.917077e+00	1.924525e+00	1.931847e+00	1.941714e+00	1.952932e+00	1.961399e+00	1.966466e+00	1.969719e+00	1.971020e+00	1.972535e+00	1.972220e+00	1.972314e+00	1.973131e+00	1.974834e+00	1.975796e+00	1.978237e+00	1.981900e+00	1.993349e+00	2.006495e+00	2.021490e+00	2.025768e+00	1.968593e+00	1.466599e+00	1.015917e+00	1.000190e+00	1.000002e+00	1.000000e+00	1.000000e+00	1.000000e+00	1.000000e+00	1.000000e+00	1.000000e+00	1.000000e+00	1.000000e+00	1.000000e+00	1.000000e+00	1.000000e+00	1.000000e+00	1.000000e+00	1.000000e+00	1.000000e+00	1.000000e+00	1.000000e+00	1.000000e+00	1.000000e+00	1.000000e+00	1.000000e+00	1.000000e+00	1.000000e+00	1.000000e+00	4.000000e+00	4.000000e+00	4.000000e+00	4.000000e+00	4.000000e+00	4.000000e+00	4.000000e+00	4.000000e+00	4.000000e+00	4.000000e+00	4.000000e+00	4.000000e+00	4.000000e+00	4.000000e+00	4.000000e+00	4.000000e+00	4.000000e+00	3.999994e+00	3.999924e+00	3.998988e+00	3.986102e+00	3.888461e+00	3.765904e+00	3.651747e+00	3.548335e+00	3.451790e+00	3.358243e+00	3.266200e+00	3.175135e+00	3.084856e+00	2.994871e+00	2.905216e+00	2.815809e+00	2.727416e+00	2.640926e+00	2.556732e+00	2.474388e+00	2.393720e+00	2.314362e+00	2.236152e+00	2.159012e+00	2.082395e+00	2.007334e+00	1.932793e+00	1.872603e+00	1.847065e+00	1.840347e+00	1.844411e+00	1.863292e+00	1.884898e+00	1.903501e+00	1.912185e+00	1.917498e+00	1.923261e+00	1.929230e+00	1.936474e+00	1.947050e+00	1.960185e+00	1.973148e+00	1.982552e+00	1.986275e+00	1.987045e+00	1.986973e+00	1.986870e+00	1.985406e+00	1.985103e+00	1.986411e+00	1.988852e+00	1.998143e+00	2.009820e+00	2.024170e+00	2.032275e+00	2.031173e+00	1.915992e+00	1.316518e+00	1.007803e+00	1.000078e+00	1.000001e+00	1.000000e+00	1.000000e+00	1.000000e+00	1.000000e+00	1.000000e+00	1.000000e+00	1.000000e+00	1.000000e+00	1.000000e+00	1.000000e+00	1.000000e+00	1.000000e+00	1.000000e+00	1.000000e+00	1.000000e+00	1.000000e+00	1.000000e+00	1.000000e+00	1.000000e+00	1.000000e+00	1.000000e+00	1.000000e+00	1.000000e+00	1.000000e+00	4.000000e+00	4.000000e+00	4.000000e+00	4.000000e+00	4.000000e+00	4.000000e+00	4.000000e+00	4.000000e+00	4.000000e+00	4.000000e+00	4.000000e+00	4.000000e+00	4.000000e+00	4.000000e+00	4.000000e+00	4.000000e+00	3.999998e+00	3.999977e+00	3.999690e+00	3.995643e+00	3.942213e+00	3.816088e+00	3.695586e+00	3.588963e+00	3.491544e+00	3.399112e+00	3.308589e+00	3.218986e+00	3.130104e+00	3.042097e+00	2.955144e+00	2.867726e+00	2.781231e+00	2.694380e+00	2.608593e+00	2.524324e+00	2.442057e+00	2.361760e+00	2.283256e+00	2.206313e+00	2.130854e+00	2.056785e+00	1.984507e+00	1.914263e+00	1.867862e+00	1.850822e+00	1.845251e+00	1.851455e+00	1.867206e+00	1.884708e+00	1.901203e+00	1.910893e+00	1.915635e+00	1.920253e+00	1.924661e+00	1.929697e+00	1.936772e+00	1.947011e+00	1.958795e+00	1.975475e+00	1.991486e+00	2.002981e+00	2.006878e+00	2.006193e+00	2.003863e+00	2.001868e+00	2.002809e+00	2.008007e+00	2.017363e+00	2.028547e+00	2.033955e+00	2.035252e+00	2.022784e+00	1.829773e+00	1.195314e+00	1.003408e+00	1.000028e+00	1.000000e+00	1.000000e+00	1.000000e+00	1.000000e+00	1.000000e+00	1.000000e+00	1.000000e+00	1.000000e+00	1.000000e+00	1.000000e+00	1.000000e+00	1.000000e+00	1.000000e+00	1.000000e+00	1.000000e+00	1.000000e+00	1.000000e+00	1.000000e+00	1.000000e+00	1.000000e+00	1.000000e+00	1.000000e+00	1.000000e+00	1.000000e+00	1.000000e+00	4.000000e+00	4.000000e+00	4.000000e+00	4.000000