# vtk DataFile Version 3.0
vtk output
ASCII
DATASET STRUCTURED_GRID
DIMENSIONS 102 102 1
POINTS 10404 double
0.000000e+00	0.000000e+00	0.0	1.980198e+00	0.000000e+00	0.0	3.960396e+00	0.000000e+00	0.0	5.940594e+00	0.000000e+00	0.0	7.920792e+00	0.000000e+00	0.0	9.900990e+00	0.000000e+00	0.0	1.188119e+01	0.000000e+00	0.0	1.386139e+01	0.000000e+00	0.0	1.584158e+01	0.000000e+00	0.0	1.782178e+01	0.000000e+00	0.0	1.980198e+01	0.000000e+00	0.0	2.178218e+01	0.000000e+00	0.0	2.376238e+01	0.000000e+00	0.0	2.574257e+01	0.000000e+00	0.0	2.772277e+01	0.000000e+00	0.0	2.970297e+01	0.000000e+00	0.0	3.168317e+01	0.000000e+00	0.0	3.366337e+01	0.000000e+00	0.0	3.564356e+01	0.000000e+00	0.0	3.762376e+01	0.000000e+00	0.0	3.960396e+01	0.000000e+00	0.0	4.158416e+01	0.000000e+00	0.0	4.356436e+01	0.000000e+00	0.0	4.554455e+01	0.000000e+00	0.0	4.752475e+01	0.000000e+00	0.0	4.950495e+01	0.000000e+00	0.0	5.148515e+01	0.000000e+00	0.0	5.346535e+01	0.000000e+00	0.0	5.544554e+01	0.000000e+00	0.0	5.742574e+01	0.000000e+00	0.0	5.940594e+01	0.000000e+00	0.0	6.138614e+01	0.000000e+00	0.0	6.336634e+01	0.000000e+00	0.0	6.534653e+01	0.000000e+00	0.0	6.732673e+01	0.000000e+00	0.0	6.930693e+01	0.000000e+00	0.0	7.128713e+01	0.000000e+00	0.0	7.326733e+01	0.000000e+00	0.0	7.524752e+01	0.000000e+00	0.0	7.722772e+01	0.000000e+00	0.0	7.920792e+01	0.000000e+00	0.0	8.118812e+01	0.000000e+00	0.0	8.316832e+01	0.000000e+00	0.0	8.514851e+01	0.000000e+00	0.0	8.712871e+01	0.000000e+00	0.0	8.910891e+01	0.000000e+00	0.0	9.108911e+01	0.000000e+00	0.0	9.306931e+01	0.000000e+00	0.0	9.504950e+01	0.000000e+00	0.0	9.702970e+01	0.000000e+00	0.0	9.900990e+01	0.000000e+00	0.0	1.009901e+02	0.000000e+00	0.0	1.029703e+02	0.000000e+00	0.0	1.049505e+02	0.000000e+00	0.0	1.069307e+02	0.000000e+00	0.0	1.089109e+02	0.000000e+00	0.0	1.108911e+02	0.000000e+00	0.0	1.128713e+02	0.000000e+00	0.0	1.148515e+02	0.000000e+00	0.0	1.168317e+02	0.000000e+00	0.0	1.188119e+02	0.000000e+00	0.0	1.207921e+02	0.000000e+00	0.0	1.227723e+02	0.000000e+00	0.0	1.247525e+02	0.000000e+00	0.0	1.267327e+02	0.000000e+00	0.0	1.287129e+02	0.000000e+00	0.0	1.306931e+02	0.000000e+00	0.0	1.326733e+02	0.000000e+00	0.0	1.346535e+02	0.000000e+00	0.0	1.366337e+02	0.000000e+00	0.0	1.386139e+02	0.000000e+00	0.0	1.405941e+02	0.000000e+00	0.0	1.425743e+02	0.000000e+00	0.0	1.445545e+02	0.000000e+00	0.0	1.465347e+02	0.000000e+00	0.0	1.485149e+02	0.000000e+00	0.0	1.504950e+02	0.000000e+00	0.0	1.524752e+02	0.000000e+00	0.0	1.544554e+02	0.000000e+00	0.0	1.564356e+02	0.000000e+00	0.0	1.584158e+02	0.000000e+00	0.0	1.603960e+02	0.000000e+00	0.0	1.623762e+02	0.000000e+00	0.0	1.643564e+02	0.000000e+00	0.0	1.663366e+02	0.000000e+00	0.0	1.683168e+02	0.000000e+00	0.0	1.702970e+02	0.000000e+00	0.0	1.722772e+02	0.000000e+00	0.0	1.742574e+02	0.000000e+00	0.0	1.762376e+02	0.000000e+00	0.0	1.782178e+02	0.000000e+00	0.0	1.801980e+02	0.000000e+00	0.0	1.821782e+02	0.000000e+00	0.0	1.841584e+02	0.000000e+00	0.0	1.861386e+02	0.000000e+00	0.0	1.881188e+02	0.000000e+00	0.0	1.900990e+02	0.000000e+00	0.0	1.920792e+02	0.000000e+00	0.0	1.940594e+02	0.000000e+00	0.0	1.960396e+02	0.000000e+00	0.0	1.980198e+02	0.000000e+00	0.0	2.000000e+02	0.000000e+00	0.0	0.000000e+00	1.980198e+00	0.0	1.980198e+00	1.980198e+00	0.0	3.960396e+00	1.980198e+00	0.0	5.940594e+00	1.980198e+00	0.0	7.920792e+00	1.980198e+00	0.0	9.900990e+00	1.980198e+00	0.0	1.188119e+01	1.980198e+00	0.0	1.386139e+01	1.980198e+00	0.0	1.584158e+01	1.980198e+00	0.0	1.782178e+01	1.980198e+00	0.0	1.980198e+01	1.980198e+00	0.0	2.178218e+01	1.980198e+00	0.0	2.376238e+01	1.980198e+00	0.0	2.574257e+01	1.980198e+00	0.0	2.772277e+01	1.980198e+00	0.0	2.970297e+01	1.980198e+00	0.0	3.168317e+01	1.980198e+00	0.0	3.366337e+01	1.980198e+00	0.0	3.564356e+01	1.980198e+00	0.0	3.762376e+01	1.980198e+00	0.0	3.960396e+01	1.980198e+00	0.0	4.158416e+01	1.980198e+00	0.0	4.356436e+01	1.980198e+00	0.0	4.554455e+01	1.980198e+00	0.0	4.752475e+01	1.980198e+00	0.0	4.950495e+01	1.980198e+00	0.0	5.148515e+01	1.980198e+00	0.0	5.346535e+01	1.980198e+00	0.0	5.544554e+01	1.980198e+00	0.0	5.742574e+01	1.980198e+00	0.0	5.940594e+01	1.980198e+00	0.0	6.138614e+01	1.980198e+00	0.0	6.336634e+01	1.980198e+00	0.0	6.534653e+01	1.980198e+00	0.0	6.732673e+01	1.980198e+00	0.0	6.930693e+01	1.980198e+00	0.0	7.128713e+01	1.980198e+00	0.0	7.326733e+01	1.980198e+00	0.0	7.524752e+01	1.980198e+00	0.0	7.722772e+01	1.980198e+00	0.0	7.920792e+01	1.980198e+00	0.0	8.118812e+01	1.980198e+00	0.0	8.316832e+01	1.980198e+00	0.0	8.514851e+01	1.980198e+00	0.0	8.712871e+01	1.980198e+00	0.0	8.910891e+01	1.980198e+00	0.0	9.108911e+01	1.980198e+00	0.0	9.306931e+01	1.980198e+00	0.0	9.504950e+01	1.980198e+00	0.0	9.702970e+01	1.980198e+00	0.0	9.900990e+01	1.980198e+00	0.0	1.009901e+02	1.980198e+00	0.0	1.029703e+02	1.980198e+00	0.0	1.049505e+02	1.980198e+00	0.0	1.069307e+02	1.980198e+00	0.0	1.089109e+02	1.980198e+00	0.0	1.108911e+02	1.980198e+00	0.0	1.128713e+02	1.980198e+00	0.0	1.148515e+02	1.980198e+00	0.0	1.168317e+02	1.980198e+00	0.0	1.188119e+02	1.980198e+00	0.0	1.207921e+02	1.980198e+00	0.0	1.227723e+02	1.980198e+00	0.0	1.247525e+02	1.980198e+00	0.0	1.267327e+02	1.980198e+00	0.0	1.287129e+02	1.980198e+00	0.0	1.306931e+02	1.980198e+00	0.0	1.326733e+02	1.980198e+00	0.0	1.346535e+02	1.980198e+00	0.0	1.366337e+02	1.980198e+00	0.0	1.386139e+02	1.980198e+00	0.0	1.405941e+02	1.980198e+00	0.0	1.425743e+02	1.980198e+00	0.0	1.445545e+02	1.980198e+00	0.0	1.465347e+02	1.980198e+00	0.0	1.485149e+02	1.980198e+00	0.0	1.504950e+02	1.980198e+00	0.0	1.524752e+02	1.980198e+00	0.0	1.544554e+02	1.980198e+00	0.0	1.564356e+02	1.980198e+00	0.0	1.584158e+02	1.980198e+00	0.0	1.603960e+02	1.980198e+00	0.0	1.623762e+02	1.980198e+00	0.0	1.643564e+02	1.980198e+00	0.0	1.663366e+02	1.980198e+00	0.0	1.683168e+02	1.980198e+00	0.0	1.702970e+02	1.980198e+00	0.0	1.722772e+02	1.980198e+00	0.0	1.742574e+02	1.980198e+00	0.0	1.762376e+02	1.980198e+00	0.0	1.782178e+02	1.980198e+00	0.0	1.801980e+02	1.980198e+00	0.0	1.821782e+02	1.980198e+00	0.0	1.841584e+02	1.980198e+00	0.0	1.861386e+02	1.980198e+00	0.0	1.881188e+02	1.980198e+00	0.0	1.900990e+02	1.980198e+00	0.0	1.920792e+02	1.980198e+00	0.0	1.940594e+02	1.980198e+00	0.0	1.960396e+02	1.980198e+00	0.0	1.980198e+02	1.980198e+00	0.0	2.000000e+02	1.980198e+00	0.0	0.000000e+00	3.960396e+00	0.0	1.980198e+00	3.960396e+00	0.0	3.960396e+00	3.960396e+00	0.0	5.940594e+00	3.960396e+00	0.0	7.920792e+00	3.960396e+00	0.0	9.900990e+00	3.960396e+00	0.0	1.188119e+01	3.960396e+00	0.0	1.386139e+01	3.960396e+00	0.0	1.584158e+01	3.960396e+00	0.0	1.782178e+01	3.960396e+00	0.0	1.980198e+01	3.960396e+00	0.0	2.178218e+01	3.960396e+00	0.0	2.376238e+01	3.960396e+00	0.0	2.574257e+01	3.960396e+00	0.0	2.772277e+01	3.960396e+00	0.0	2.970297e+01	3.960396e+00	0.0	3.168317e+01	3.960396e+00	0.0	3.366337e+01	3.960396e+00	0.0	3.564356e+01	3.960396e+00	0.0	3.762376e+01	3.960396e+00	0.0	3.960396e+01	3.960396e+00	0.0	4.158416e+01	3.960396e+00	0.0	4.356436e+01	3.960396e+00	0.0	4.554455e+01	3.960396e+00	0.0	4.752475e+01	3.960396e+00	0.0	4.950495e+01	3.960396e+00	0.0	5.148515e+01	3.960396e+00	0.0	5.346535e+01	3.960396e+00	0.0	5.544554e+01	3.960396e+00	0.0	5.742574e+01	3.960396e+00	0.0	5.940594e+01	3.960396e+00	0.0	6.138614e+01	3.960396e+00	0.0	6.336634e+01	3.960396e+00	0.0	6.534653e+01	3.960396e+00	0.0	6.732673e+01	3.960396e+00	0.0	6.930693e+01	3.960396e+00	0.0	7.128713e+01	3.960396e+00	0.0	7.326733e+01	3.960396e+00	0.0	7.524752e+01	3.960396e+00	0.0	7.722772e+01	3.960396e+00	0.0	7.920792e+01	3.960396e+00	0.0	8.118812e+01	3.960396e+00	0.0	8.316832e+01	3.960396e+00	0.0	8.514851e+01	3.960396e+00	0.0	8.712871e+01	3.960396e+00	0.0	8.910891e+01	3.960396e+00	0.0	9.108911e+01	3.960396e+00	0.0	9.306931e+01	3.960396e+00	0.0	9.504950e+01	3.960396e+00	0.0	9.702970e+01	3.960396e+00	0.0	9.900990e+01	3.960396e+00	0.0	1.009901e+02	3.960396e+00	0.0	1.029703e+02	3.960396e+00	0.0	1.049505e+02	3.960396e+00	0.0	1.069307e+02	3.960396e+00	0.0	1.089109e+02	3.960396e+00	0.0	1.108911e+02	3.960396e+00	0.0	1.128713e+02	3.960396e+00	0.0	1.148515e+02	3.960396e+00	0.0	1.168317e+02	3.960396e+00	0.0	1.188119e+02	3.960396e+00	0.0	1.207921e+02	3.960396e+00	0.0	1.227723e+02	3.960396e+00	0.0	1.247525e+02	3.960396e+00	0.0	1.267327e+02	3.960396e+00	0.0	1.287129e+02	3.960396e+00	0.0	1.306931e+02	3.960396e+00	0.0	1.326733e+02	3.960396e+00	0.0	1.346535e+02	3.960396e+00	0.0	1.366337e+02	3.960396e+00	0.0	1.386139e+02	3.960396e+00	0.0	1.405941e+02	3.960396e+00	0.0	1.425743e+02	3.960396e+00	0.0	1.445545e+02	3.960396e+00	0.0	1.465347e+02	3.960396e+00	0.0	1.485149e+02	3.960396e+00	0.0	1.504950e+02	3.960396e+00	0.0	1.524752e+02	3.960396e+00	0.0	1.544554e+02	3.960396e+00	0.0	1.564356e+02	3.960396e+00	0.0	1.584158e+02	3.960396e+00	0.0	1.603960e+02	3.960396e+00	0.0	1.623762e+02	3.960396e+00	0.0	1.643564e+02	3.960396e+00	0.0	1.663366e+02	3.960396e+00	0.0	1.683168e+02	3.960396e+00	0.0	1.702970e+02	3.960396e+00	0.0	1.722772e+02	3.960396e+00	0.0	1.742574e+02	3.960396e+00	0.0	1.762376e+02	3.960396e+00	0.0	1.782178e+02	3.960396e+00	0.0	1.801980e+02	3.960396e+00	0.0	1.821782e+02	3.960396e+00	0.0	1.841584e+02	3.960396e+00	0.0	1.861386e+02	3.960396e+00	0.0	1.881188e+02	3.960396e+00	0.0	1.900990e+02	3.960396e+00	0.0	1.920792e+02	3.960396e+00	0.0	1.940594e+02	3.960396e+00	0.0	1.960396e+02	3.960396e+00	0.0	1.980198e+02	3.960396e+00	0.0	2.000000e+02	3.960396e+00	0.0	0.000000e+00	5.940594e+00	0.0	1.980198e+00	5.940594e+00	0.0	3.960396e+00	5.940594e+00	0.0	5.940594e+00	5.940594e+00	0.0	7.920792e+00	5.940594e+00	0.0	9.900990e+00	5.940594e+00	0.0	1.188119e+01	5.940594e+00	0.0	1.386139e+01	5.940594e+00	0.0	1.584158e+01	5.940594e+00	0.0	1.782178e+01	5.940594e+00	0.0	1.980198e+01	5.940594e+00	0.0	2.178218e+01	5.940594e+00	0.0	2.376238e+01	5.940594e+00	0.0	2.574257e+01	5.940594e+00	0.0	2.772277e+01	5.940594e+00	0.0	2.970297e+01	5.940594e+00	0.0	3.168317e+01	5.940594e+00	0.0	3.366337e+01	5.940594e+00	0.0	3.564356e+01	5.940594e+00	0.0	3.762376e+01	5.940594e+00	0.0	3.960396e+01	5.940594e+00	0.0	4.158416e+01	5.940594e+00	0.0	4.356436e+01	5.940594e+00	0.0	4.554455e+01	5.940594
[...]
POINT_DATA 10404

SCALARS Height double 1
LOOKUP_TABLE default
4.000000e+00	4.000000e+00	4.000000e+00	4.000000e+00	4.000000e+00	4.000000e+00	4.000000e+00	4.000000e+00	4.000000e+00	4.000000e+00	3.999999e+00	3.999994e+00	3.999973e+00	3.999883e+00	3.999492e+00	3.997779e+00	3.990246e+00	3.958440e+00	3.889373e+00	3.802531e+00	3.708172e+00	3.610568e+00	3.512315e+00	3.414921e+00	3.319485e+00	3.226418e+00	3.135812e+00	3.047612e+00	2.961665e+00	2.877793e+00	2.795822e+00	2.715612e+00	2.637064e+00	2.560098e+00	2.484640e+00	2.410624e+00	2.338004e+00	2.266740e+00	2.196762e+00	2.128024e+00	2.060469e+00	1.994017e+00	1.928607e+00	1.864087e+00	1.799625e+00	1.744458e+00	1.720161e+00	1.710466e+00	1.706871e+00	1.727249e+00	1.754392e+00	1.772982e+00	1.784586e+00	1.797569e+00	1.809177e+00	1.818852e+00	1.828048e+00	1.836488e+00	1.844347e+00	1.852096e+00	1.860283e+00	1.868401e+00	1.876009e+00	1.883372e+00	1.890138e+00	1.896654e+00	1.903046e+00	1.909566e+00	1.915765e+00	1.922311e+00	1.929878e+00	1.940083e+00	1.953334e+00	1.968450e+00	1.983163e+00	1.992202e+00	1.995356e+00	1.993731e+00	1.986773e+00	1.958882e+00	1.793420e+00	1.308761e+00	1.021163e+00	1.000657e+00	1.000018e+00	1.000000e+00	1.000000e+00	1.000000e+00	1.000000e+00	1.000000e+00	1.000000e+00	1.000000e+00	1.000000e+00	1.000000e+00	1.000000e+00	1.000000e+00	1.000000e+00	1.000000e+00	1.000000e+00	1.000000e+00	1.000000e+00	1.000000e+00	4.000000e+00	4.000000e+00	4.000000e+00	4.000000e+00	4.000000e+00	4.000000e+00	4.000000e+00	4.000000e+00	4.000000e+00	4.000000e+00	3.999999e+00	3.999998e+00	3.999989e+00	3.999953e+00	3.999788e+00	3.998983e+00	3.994282e+00	3.961361e+00	3.886732e+00	3.800584e+00	3.707970e+00	3.611557e+00	3.514144e+00	3.417682e+00	3.322955e+00	3.230562e+00	3.140513e+00	3.052764e+00	2.967180e+00	2.883597e+00	2.801856e+00	2.721834e+00	2.643436e+00	2.566591e+00	2.491231e+00	2.417299e+00	2.344751e+00	2.273538e+00	2.203582e+00	2.134871e+00	2.067338e+00	2.000903e+00	1.935497e+00	1.870980e+00	1.806438e+00	1.751372e+00	1.727092e+00	1.717292e+00	1.713453e+00	1.733607e+00	1.760663e+00	1.778902e+00	1.789896e+00	1.802770e+00	1.814428e+00	1.824383e+00	1.833801e+00	1.842348e+00	1.850306e+00	1.858187e+00	1.866506e+00	1.874913e+00	1.882975e+00	1.890792e+00	1.898177e+00	1.905066e+00	1.911933e+00	1.918706e+00	1.925386e+00	1.932614e+00	1.940342e+00	1.949531e+00	1.961152e+00	1.973859e+00	1.986250e+00	1.994594e+00	1.995526e+00	1.992860e+00	1.988055e+00	1.968050e+00	1.821848e+00	1.251355e+00	1.006591e+00	1.000088e+00	1.000001e+00	1.000000e+00	1.000000e+00	1.000000e+00	1.000000e+00	1.000000e+00	1.000000e+00	1.000000e+00	1.000000e+00	1.000000e+00	1.000000e+00	1.000000e+00	1.000000e+00	1.000000e+00	1.000000e+00	1.000000e+00	1.000000e+00	1.000000e+00	4.000000e+00	4.000000e+00	4.000000e+00	4.000000e+00	4.000000e+00	4.000000e+00	4.000000e+00	4.000000e+00	4.000000e+00	4.000000e+00	4.000000e+00	3.999999e+00	3.999996e+00	3.999980e+00	3.999899e+00	3.999399e+00	3.995410e+00	3.959823e+00	3.876934e+00	3.787880e+00	3.694201e+00	3.598775e+00	3.501195e+00	3.404056e+00	3.309172e+00	3.216629e+00	3.126540e+00	3.038782e+00	2.953169e+00	2.869530e+00	2.787718e+00	2.707625e+00	2.629158e+00	2.552239e+00	2.476820e+00	2.402867e+00	2.330334e+00	2.259165e+00	2.189338e+00	2.120738e+00	2.053316e+00	1.987032e+00	1.921761e+00	1.857515e+00	1.792816e+00	1.739423e+00	1.716391e+00	1.707333e+00	1.704783e+00	1.726373e+00	1.753232e+00	1.771230e+00	1.782724e+00	1.795738e+00	1.807872e+00	1.818909e+00	1.829485e+00	1.839157e+00	1.847933e+00	1.856009e+00	1.864212e+00	1.872470e+00	1.880677e+00	1.888792e+00	1.896450e+00	1.903593e+00	1.910266e+00	1.917419e+00	1.924503e+00	1.931538e+00	1.938433e+00	1.945223e+00	1.951575e+00	1.958338e+00	1.966646e+00	1.972861e+00	1.977215e+00	1.979219e+00	1.978819e+00	1.968255e+00	1.825406e+00	1.235309e+00	1.005157e+00	1.000050e+00	1.000000e+00	1.000000e+00	1.000000e+00	1.000000e+00	1.000000e+00	1.000000e+00	1.000000e+00	1.000000e+00	1.000000e+00	1.000000e+00	1.000000e+00	1.000000e+00	1.000000e+00	1.000000e+00	1.000000e+00	1.000000e+00	1.000000e+00	1.000000e+00	4.000000e+00	4.000000e+00	4.000000e+00	4.000000e+00	4.000000e+00	4.000000e+00	4.000000e+00	4.000000e+00	4.000000e+00	4.000000e+00	4.000000e+00	4.000000e+00	3.999998e+00	3.999991e+00	3.999944e+00	3.999558e+00	3.995621e+00	3.955883e+00	3.865280e+00	3.772035e+00	3.678573e+00	3.584205e+00	3.490200e+00	3.395126e+00	3.301478e+00	3.210317e+00	3.121514e+00	3.034805e+00	2.950009e+00	2.867015e+00	2.785748e+00	2.706139e+00	2.628105e+00	2.551565e+00	2.476476e+00	2.402824e+00	2.330580e+00	2.259678e+00	2.190040e+00	2.121602e+00	2.054325e+00	1.988199e+00	1.923038e+00	1.858984e+00	1.794284e+00	1.742407e+00	1.720351e+00	1.711698e+00	1.710288e+00	1.732677e+00	1.758832e+00	1.776211e+00	1.788063e+00	1.801182e+00	1.813381e+00	1.825264e+00	1.836864e+00	1.847352e+00	1.856630e+00	1.864728e+00	1.872701e+00	1.880732e+00	1.888847e+00	1.896974e+00	1.904536e+00	1.911485e+00	1.917969e+00	1.925075e+00	1.932370e+00	1.939692e+00	1.946427e+00	1.951882e+00	1.955780e+00	1.957204e+00	1.957912e+00	1.960329e+00	1.964425e+00	1.970719e+00	1.975899e+00	1.971484e+00	1.822675e+00	1.220939e+00	1.004590e+00	1.000042e+00	1.000000e+00	1.000000e+00	1.000000e+00	1.000000e+00	1.000000e+00	1.000000e+00	1.000000e+00	1.000000e+00	1.000000e+00	1.000000e+00	1.000000e+00	1.000000e+00	1.000000e+00	1.000000e+00	1.000000e+00	1.000000e+00	1.000000e+00	1.000000e+00	4.000000e+00	4.000000e+00	4.000000e+00	4.000000e+00	4.000000e+00	4.000000e+00	4.000000e+00	4.000000e+00	4.000000e+00	4.000000e+00	4.000000e+00	4.000000e+00	3.999999e+00	3.999995e+00	3.999956e+00	3.999541e+00	3.994810e+00	3.947445e+00	3.849660e+00	3.751654e+00	3.656928e+00	3.563963e+00	3.471717e+00	3.380359e+00	3.288598e+00	3.198693e+00	3.110940e+00	3.025129e+00	2.941087e+00	2.858717e+00	2.777980e+00	2.698832e+00	2.621215e+00	2.545056e+00	2.470309e+00	2.396960e+00	2.324992e+00	2.254357e+00	2.184976e+00	2.116791e+00	2.049746e+00	1.983868e+00	1.918904e+00	1.855093e+00	1.790547e+00	1.741149e+00	1.720680e+00	1.712672e+00	1.713189e+00	1.736798e+00	1.762137e+00	1.778622e+00	1.791372e+00	1.805121e+00	1.817911e+00	1.830915e+00	1.844143e+00	1.855982e+00	1.866090e+00	1.874283e+00	1.881751e+00	1.888914e+00	1.896297e+00	1.903826e+00	1.910861e+00	1.917393e+00	1.923766e+00	1.930372e+00	1.937783e+00	1.945006e+00	1.951253e+00	1.954219e+00	1.952894e+00	1.950758e+00	1.948491e+00	1.948800e+00	1.954768e+00	1.966324e+00	1.977514e+00	1.972236e+00	1.807651e+00	1.200660e+00	1.003830e+00	1.000033e+00	1.000000e+00	1.000000e+00	1.000000e+00	1.000000e+00	1.000000e+00	1.000000e+00	1.000000e+00	1.000000e+00	1.000000e+00	1.000000e+00	1.000000e+00	1.000000e+00	1.000000e+00	1.000000e+00	1.000000e+00	1.000000e+00	1.000000e+00	1.000000e+00	4.000000e+00	4.000000e+00	4.000000e+00	4.000000e+00	4.000000e+00	4.000000e+00	4.000000e+00	4.000000e+00	4.000000e+00	4.000000e+00	4.000000e+00	4.000000e+00	3.999999e+00	3.999995e+00	3.999943e+00	3.999352e+00	3.992609e+00	3.931355e+00	3.829702e+00	3.727696e+00	3.630003e+00	3.537752e+00	3.447973e+00	3.360104e+00	3.272105e+00	3.184077e+00	3.097432e+00	3.012579e+00	2.929430e+00	2.847870e+00	2.767845e+00	2.689317e+00	2.612261e+00	2.536626e+00	2.462362e+00	2.389446e+00	2.317861e+00	2.247584e+00	2.178550e+00	2.110713e+00	2.043992e+00	1.978441e+00	1.913777e+00	1.850180e+00	1.786047e+00	1.739960e+00	1.721306e+00	1.713973e+00	1.717855e+00	1.742414e+00	1.766358e+00	1.782000e+00	1.796900e+00	1.812654e+00	1.826956e+00	1.840183e+00	1.853484e+00	1.866066e+00	1.876718e+00	1.885314e+00	1.892763e+00	1.899213e+00	1.905663e+00	1.911829e+00	1.917467e+00	1.922718e+00	1.928291e+00	1.933960e+00	1.940555e+00	1.946280e+00	1.949819e+00	1.949822e+00	1.948557e+00	1.947028e+00	1.944375e+00	1.944023e+00	1.952979e+00	1.966882e+00	1.979695e+00	1.972321e+00	1.779969e+00	1.174737e+00	1.002926e+00	1.000024e+00	1.000000e+00	1.000000e+00	1.000000e+00	1.000000e+00	1.000000e+00	1.000000e+00	1.000000e+00	1.000000e+00	1.000000e+00	1.000000e+00	1.000000e+00	1.000000e+00	1.000000e+00	1.000000e+00	1.000000e+00	1.000000e+00	1.000000e+00	1.000000e+00	4.000000e+00	4.000000e+00	4.000000e+00	4.000000e+00	4.000000e+00	4.000000e+00	4.000000e+00	4.000000e+00	4.000000e+00	4.000000e+00	4.000000e+00	4.000000e+00	3.999999e+00	3.999992e+00	3.999907e+00	3.998903e+00	3.986373e+00	3.906594e+00	3.802932e+00	3.699057e+00	3.599215e+00	3.506828e+00	3.420195e+00	3.334951e+00	3.251190e+00	3.166075e+00	3.081052e+00	2.997229e+00	2.915023e+00	2.834385e+00	2.755217e+00	2.677468e+00	2.601126e+00	2.526159e+00	2.452526e+00	2.380188e+00	2.309117e+00	2.239304e+00	2.170708e+00	2.103306e+00	2.037007e+00	1.971854e+00	1.907609e+00	1.844232e+00	1.780821e+00	1.738738e+00	1.722083e+00	1.715501e+00	1.723371e+00	1.748695e+00	1.771203e+00	1.787208e+00	1.804607e+00	1.821142e+00	1.835159e+00	1.847712e+00	1.859953e+00	1.872054e+00	1.883928e+00	1.893690e+00	1.901523e+00	1.907800e+00	1.912858e+00	1.917273e+00	1.922155e+00	1.926702e+00	1.931056e+00	1.934703e+00	1.938669e+00	1.941635e+00	1.941932e+00	1.942256e+00	1.943326e+00	1.943978e+00	1.944581e+00	1.948573e+00	1.957596e+00	1.970683e+00	1.981424e+00	1.970929e+00	1.742107e+00	1.141475e+00	1.001947e+00	1.000016e+00	1.000000e+00	1.000000e+00	1.000000e+00	1.000000e+00	1.000000e+00	1.000000e+00	1.000000e+00	1.000000e+00	1.000000e+00	1.000000e+00	1.000000e+00	1.000000e+00	1.000000e+00	1.000000e+00	1.000000e+00	1.000000e+00	1.000000e+00	1.000000e+00	4.000000e+00	4.000000e+00	4.000000e+00	4.000000e+00	4.000000e+00	4.000000e+00	4.000000e+00	4.000000e+00	4.000000e+00	4.000000e+00	4.000000e+00	4.000000e+00	3.999999e+00	3.999985e+00	3.999817e+00	3.997735e+00	3.971493e+00	3.874485e+00	3.767937e+00	3.663941e+00	3.565384e+00	3.473964e+00	3.388566e+00	3.306494e+00	3.224899e+00	3.143971e+00	3.061422e+00	2.979085e+00	2.897920e+00	2.818252e+00	2.740043e+00	2.663204e+00	2.587714e+00	2.513544e+00	2.440667e+00	2.369037e+00	2.298612e+00	2.229388e+00	2.161335e+00	2.094460e+00	2.028693e+00	1.964019e+00	1.900331e+00	1.837196e+00	1.774946e+00	1.737493e+00	1.723102e+00	1.717584e+00	1.730686e+00	1.757008e+00	1.778096e+00	1.793968e+00	1.811309e+00	1.827270e+00	1.840564e+00	1.852261e+00	1.863408e+00	1.874038e+00	1.884241e+00	1.895023e+00	1.905868e+00	1.913631e+00	1.918932e+00	1.922502e+00	1.925944e+00	1.928523e+00	1.930549e+00	1.931985e+00	1.933000e+00	1.933200e+00	1.935284e+00	1.937612e+00	1.940449e+00	1.943789e+00	1.949781e+00	1.957360e+00	1.966340e+00	1.976930e+00	1.983757e+00	1.967608e+00	1.688290e+00	1.107495e+00	1.001241e+00	1.000011e+00	1.000000e+00	1.000000e+00	1.000000e+00	1.000000e+00	1.000000e+00	1.000000e+00	1.000000e+00	1.000000e+00	1.000000e+00	1.000000e+00	1.000000e+00	1.000000e+00	1.000000e+00	1.000000e+00	1.000000e+00	1.000000e+00	1.000000e+00	1.000000e+00	4.000000e+00	4.000000e+00	4.000000e+00	4.000000e+00	4.000000e+00	4.000000e+00	4.000000e+00	4.000000e+00	4.000000e+00	4.000000e+00	4.000000e+00	4.000000e+00	3.999997e+00	3.999966e+00	3.999575e+00	3.994692e+00	3.941969e+00	3.833275e+00	3.724591e+00	3.623388e+00	3.528888e+00	3.439697e+00	3.355213e+00	3.274418e+00	3.195008e+00	3.116432e+00	3.037824e+00	2.957853e+00	2.878157e+00	2.799577e+00	2.722367e+00	2.646513e+00	2.571976e+00	2.498709e+00	2.426690e+00	2.355877e+00	2.286223e+00	2.217712e+00	2.150320e+00	2.084067e+00	2.018940e+00	1.954820e+00	1.891827e+00	1.828894e+00	1.768452e+00	1.736112e+00	1.724359e+00	1.720841e+00	1.739903e+00	1.767404e+00	1.785858e+00	1.799294e+00	1.815113e+00	1.830053e+00	1.842689e+00	1.853599e+00	1.863770e+00	1.873350e+00	1.882189e+00	1.891224e+00	1.902409e+00	1.914850e+00	1.924441e+00	1.929227e+00	1.931966e+00	1.932980e+00	1.933488e+00	1.934102e+00	1.933594e+00	1.932871e+00	1.935027e+00	1.938050e+00	1.943357e+00	1.950958e+00	1.959718e+00	1.968759e+00	1.977612e+00	1.984441e+00	1.987685e+00	1.958976e+00	1.622540e+00	1.072192e+00	1.000682e+00	1.000007e+00	1.000000e+00	1.000000e+00	1.000000e+00	1.000000e+00	1.000000e+00	1.000000e+00	1.000000e+00	1.000000e+00	1.000000e+00	1.000000e+00	1.000000e+00	1.000000e+00	1.000000e+00	1.000000e+00	1.000000e+00	1.000000e+00	1.000000e+00	1.000000e+00	4.000000e+00	4.000000e+00	4.000000e+00	4.000000e+00	4.000000e+00	4.000000e+00	4.000000e+00	4.000000e+00	4.000000e+00	4.000000e+00	4.000000e+00	3.999999e+00	3.999993e+00	3.999909e+00	3.998849e+00	3.984450e+00	3.892688e+00	3.780140e+00	3.674844e+00	3.579343e+00	3.489856e+00	3.403695e+00	3.320274e+00	3.239852e+00	3.162089e+00	3.085094e+00	3.009169e+00	2.932905e+00	2.855474e+00	2.778402e+00	2.702329e+00	2.627516e+00	2.553986e+00	2.481688e+00	2.410601e+00	2.340682e+00	2.271889e+00	2.204193e+00	2.137567e+00	2.072028e+00	2.007641e+00	1.944168e+00	1.881978e+00	1.818979e+00	1.761946e+00	1.734901e+00	1.725828e+00	1.726200e+00	1.750864e+00	1.777714e+00	1.792683e+00	1.802869e+00	1.816307e+00	1.829787e+00	1.841906e+00	1.852397e+00	1.861839e+00	1.870462e+00	1.878359e+00	1.886176e+00	1.895837e+00	1.906931e+00	1.919900e+00	1.933895e+00	1.942469e+00	1.943931e+00	1.943870e+00	1.943634e+00	1.943243e+00	1.942712e+00	1.943924e+00	1.949195e+00	1.955216e+00	1.962876e+00	1.972472e+00	1.982393e+00	1.988073e+00	1.990321e+00	1.984721e+00	1.937578e+00	1.549834e+00	1.044176e+00	1.000440e+00	1.000005e+00	1.000000e+00	1.000000e+00	1.000000e+00	1.000000e+00	1.000000e+00	1.000000e+00	1.000000e+00	1.000000e+00	1.000000e+00	1.000000e+00	1.000000e+00	1.000000e+00	1.000000e+00	1.000000e+00	1.000000e+00	1.000000e+00	1.000000e+00	1.000000e+00	3.999999e+00	3.999999e+00	4.000000e+00	4.000000e+00	4.000000e+00	4.000000e+00	4.000000e+00	4.000000e+00	4.000000e+00	4.000000e+00	4.000000e+00	3.999998e+00	3.999976e+00	3.999701e+00	3.995983e+00	3.948681e+00	3.831541e+00	3.719766e+00	3.621611e+00	3.532557e+00	3.448001e+00	3.365110e+00	3.283533e+00	3.203624e+00	3.126216e+00	3.050972e+00	2.976633e+00	2.903125e+00	2.829296e+00	2.754482e+00	2.679989e+00	2.606380e+00	2.533915e+00	2.462615e+00	2.392491e+00	2.323506e+00	2.255627e+00	2.188818e+00	2.123049e+00	2.058320e+00	1.994756e+00	1.932072e+00	1.870652e+00	1.807937e+00	1.756091e+00	1.734580e+00	1.727646e+00	1.734509e+00	1.760982e+00	1.786207e+00	1.798062e+00	1.805352e+00	1.815971e+00	1.827586e+00	1.839031e+00	1.849456e+00	1.858496e+00	1.866393e+00	1.873492e+00	1.879996e+00	1.887200e+00	1.896307e+00	1.907606e+00	1.921561e+00	1.938823e+00	1.951351e+00	1.955656e+00	1.955384e+00	1.955340e+00	1.956916e+00	1.960657e+00	1.964401e+00	1.968622e+00	1.975830e+00	1.984933e+00	1.988594e+00	1.987028e+00	1.984126e+00	1.975267e+00	1.912786e+00	1.475591e+00	1.021029e+00	1.000277e+00	1.000003e+00	1.000000e+00	1.000000e+00	1.000000e+00	1.000000e+00	1.000000e+00	1.000000e+00	1.000000e+00	1.000000e+00	1.000000e+00	1.000000e+00	1.000000e+00	1.000000e+00	1.000000e+00	1.000000e+00	1.000000e+00	1.000000e+00	1.000000e+00	1.000000e+00	3.999994e+00	3.999998e+00	3.999999e+00	4.000000e+00	4.000000e+00	4.000000e+00	4.000000e+00	4.000000e+00	4.000000e+00	3.999999e+00	3.999998e+00	3.999988e+00	3.999887e+00	3.998624e+00	3.980219e+00	3.874857e+00	3.759312e+00	3.656727e+00	3.566325e+00	3.483086e+00	3.402928e+00	3.323445e+00	3.244381e+00	3.166011e+00	3.089260e+00	3.014670e+00	2.941581e+00	2.869639e+00	2.798371e+00	2.727059e+00	2.654954e+00	2.583057e+00	2.511879e+00	2.441667e+00	2.372546e+00	2.304520e+00	2.237582e+00	2.171695e+00	2.106839e+00	2.043006e+00	1.980325e+00	1.918622e+00	1.857887e+00	1.796546e+00	1.751221e+00	1.735461e+00	1.730623e+00	1.743566e+00	1.769246e+00	1.792387e+00	1.802097e+00	1.807411e+00	1.815437e+00	1.824706e+00	1.835008e+00	1.845276e+00	1.854116e+00	1.861610e+00	1.868320e+00	1.873760e+00	1.879101e+00	1.884803e+00	1.893422e+00	1.904987e+00	1.919745e+00	1.940377e+00	1.959974e+00	1.966922e+00	1.971688e+00	1.976229e+00	1.979813e+00	1.979941e+00	1.981351e+00	1.985960e+00	1.986760e+00	1.983663e+00	1.979768e+00	1.976498e+00	1.966029e+00	1.885032e+00	1.387297e+00	1.012714e+00	1.000158e+00	1.000001e+00	1.000000e+00	1.000000e+00	1.000000e+00	1.000000e+00	1.000000e+00	1.000000e+00	1.000000e+00	1.000000e+00	1.000000e+00	1.000000e+00	1.000000e+00	1.000000e+00	1.000000e+00	1.000000e+00	1.000000e+00	1.000000e+00	1.000000e+00	1.000000e+00	3.999973e+00	3.999989e+00	3.999996e+00	3.999998e+00	3.999999e+00	3.999999e+00	3.999999e+00	3.999999e+00	3.999997e+00	3.999993e+00	3.999976e+00	3.999887e+00	3.999110e+00	3.990190e+00	3.907669e+00	3.791196e+00	3.685532e+00	3.592451e+00	3.509176e+00	3.430971e+00	3.354747e+00	3.278670e+00	3.202540e+00	3.126414e+00	3.051074e+00	2.976987e+00	2.904828e+00	2.834146e+00	2.764430e+00	2.695425e+00	2.626453e+00	2.557025e+00	2.487685e+00	2.418874e+00	2.350911e+00	2.283912e+00	2.217947e+00	2.153007e+00	2.089092e+00	2.026225e+00	1.964466e+00	1.903951e+00	1.843906e+00	1.785391e+00	1.748269e+00	1.737334e+00	1.735370e+00	1.751206e+00	1.775261e+00	1.796518e+00	1.805362e+00	1.809579e+00	1.815983e+00	1.823220e+00	1.831765e+00	1.841567e+00	1.851393e+00	1.860268e+00	1.868447e+00	1.875343e+00	1.881122e+00	1.885002e+00	1.888347e+00	1.892780e+00	1.902730e+00	1.916991e+00	1.942177e+00	1.970429e+00	1.986004e+00	1.992727e+00	1.995870e+00	1.993709e+00	1.992304e+00	1.988734e+00	1.982890e+00	1.976176e+00	1.971110e+00	1.968998e+00	1.959733e+00	1.849529e+00	1.295645e+00	1.007593e+00	1.000080e+00	1.000001e+00	1.000000e+00	1.000000e+00	1.000000e+00	1.000000e+00	1.000000e+00	1.000000e+00	1.000000e+00	1.000000e+00	1.000000e+00	1.000000e+00	1.000000e+00	1.000000e+00	1.000000e+00	1.000000e+00	1.000000e+00	1.000000e+00	1.000000e+00	1.000000e+00	3.999883e+00	3.999953e+00	3.999980e+00	3.999991e+00	3.999995e+00	3.999995e+00	3.999992e+00	3.999985e+00	3.999966e+00	3.999909e+00	3.999701e+00	3.998624e+00	3.990190e+00	3.920164e+00	3.809544e+00	3.705569e+00	3.611618e+00	3.527501e+00	3.450198e+00	3.376469e+00	3.303890e+00	3.231105e+00	3.158032e+00	3.084574e+00	3.011448e+00	2.938677e+00	2.867203e+00	2.797240e+00	2.728673e+00	2.661152e+00	2.594328e+00	2.527647e+00	2.460762e+00	2.393914e+00	2.327489e+00	2.261736e+00	2.196859e+00	2.132925e+00	2.069990e+00	2.008153e+00	1.947389e+00	1.888169e+00	1.829261e+00	1.775107e+00	1.747452e+00	1.739792e+00	1.740072e+00	1.757347e+00	1.779464e+00	1.799297e+00	1.808328e+00	1.812657e+00	1.819004e+00	1.826760e+00	1.835862e+00	1.845612e+00	1.855511e+00	1.865100e+00	1.874076e+00	1.881879e+00	1.888547e+00	1.893006e+00	1.895780e+00	1.898000e+00	1.900124e+00	1.906189e+00	1.917953e+00	1.944303e+00	1.971056e+00	1.991906e+00	2.002676e+00	2.003982e+00	1.996392e+00	1.988343e+00	1.978842e+00	1.970060e+00	1.965219e+00	1.964248e+00	1.956964e+00	1.801685e+00	1.201363e+00	1.003839e+00	1.000033e+00	1.000000e+00	1.000000e+00	1.000000e+00	1.000000e+00	1.000000e+00	1.000000e+00	1.000000e+00	1.000000e+00	1.000000e+00	1.000000e+00	1.000000e+00	1.000000e+00	1.000000e+00	1.000000e+00	1.000000e+00	1.000000e+00	1.000000e+00	1.000000e+00	1.000000e+00	3.999492e+00	3.999788e+00	3.999899e+00	3.999944e+00	3.999956e+00	3.999943e+00	3.999907e+00	3.999817e+00	3.999575e+00	3.998849e+00	3.995983e+00	3.980219e+00	3.907669e+00	3.809544e+00	3.712846e+00	3.621925e+00	3.538706e+00	3.462002e+00	3.389938e+00	3.320200e+00	3.250974e+00	3.181299e+00	3.111162e+00	3.040646e+00	2.969861e+00	2.899245e+00	2.829016e+00	2.759895e+00	2.691963e+00	2.625343e+00	2.559840e+00	2.495142e+00	2.430683e+00	2.366217e+00	2.301831e+00	2.237737e+00	2.174232e+00	2.111488e+00	2.049652e+00	1.988924e+00	1.929319e+00	1.871339e+00	1.814150e+00	1.767330e+00	1.748126e+00	1.742178e+00	1.744657e+00	1.762277e+00	1.782573e+00	1.801373e+00	1.812142e+00	1.818831e+00	1.827644e+00	1.837280e+00	1.846392e+00	1.855301e+00	1.863906e+00	1.872069e+00	1.880437e+00	1.888643e+00	1.895994e+00	1.901635e+00	1.905628e+00	1.907799e+00	1.909556e+00	1.910970e+00	1.914474e+00	1.921811e+00	1.935421e+00	1.959783e+00	1.981733e+00	1.992329e+00	1.995446e+00	1.987755e+00	1.977189e+00	1.968051e+00	1.967757e+00	1.970884e+00	1.959372e+00	1.714664e+00	1.122882e+00	1.001495e+00	1.000012e+00	1.000000e+00	1.000000e+00	1.000000e+00	1.000000e+00	1.000000e+00	1.000000e+00	1.000000e+00	1.000000e+00	1.000000e+00	1.000000e+00	1.000000e+00	1.000000e+00	1.000000e+00	1.000000e+00	1.000000e+00	1.000000e+00	1.000000e+00	1.000000e+00	1.000000e+00	3.997779e+00	3.998983e+00	3.999399e+00	3.999558