# vtk DataFile Version 3.0
vtk output
ASCII
DATASET STRUCTURED_GRID
DIMENSIONS 102 102 1
POINTS 10404 double
0.000000e+00	0.000000e+00	0.0	1.980198e+00	0.000000e+00	0.0	3.960396e+00	0.000000e+00	0.0	5.940594e+00	0.000000e+00	0.0	7.920792e+00	0.000000e+00	0.0	9.900990e+00	0.000000e+00	0.0	1.188119e+01	0.000000e+00	0.0	1.386139e+01	0.000000e+00	0.0	1.584158e+01	0.000000e+00	0.0	1.782178e+01	0.000000e+00	0.0	1.980198e+01	0.000000e+00	0.0	2.178218e+01	0.000000e+00	0.0	2.376238e+01	0.000000e+00	0.0	2.574257e+01	0.000000e+00	0.0	2.772277e+01	0.000000e+00	0.0	2.970297e+01	0.000000e+00	0.0	3.168317e+01	0.000000e+00	0.0	3.366337e+01	0.000000e+00	0.0	3.564356e+01	0.000000e+00	0.0	3.762376e+01	0.000000e+00	0.0	3.960396e+01	0.000000e+00	0.0	4.158416e+01	0.000000e+00	0.0	4.356436e+01	0.000000e+00	0.0	4.554455e+01	0.000000e+00	0.0	4.752475e+01	0.000000e+00	0.0	4.950495e+01	0.000000e+00	0.0	5.148515e+01	0.000000e+00	0.0	5.346535e+01	0.000000e+00	0.0	5.544554e+01	0.000000e+00	0.0	5.742574e+01	0.000000e+00	0.0	5.940594e+01	0.000000e+00	0.0	6.138614e+01	0.000000e+00	0.0	6.336634e+01	0.000000e+00	0.0	6.534653e+01	0.000000e+00	0.0	6.732673e+01	0.000000e+00	0.0	6.930693e+01	0.000000e+00	0.0	7.128713e+01	0.000000e+00	0.0	7.326733e+01	0.000000e+00	0.0	7.524752e+01	0.000000e+00	0.0	7.722772e+01	0.000000e+00	0.0	7.920792e+01	0.000000e+00	0.0	8.118812e+01	0.000000e+00	0.0	8.316832e+01	0.000000e+00	0.0	8.514851e+01	0.000000e+00	0.0	8.712871e+01	0.000000e+00	0.0	8.910891e+01	0.000000e+00	0.0	9.108911e+01	0.000000e+00	0.0	9.306931e+01	0.000000e+00	0.0	9.504950e+01	0.000000e+00	0.0	9.702970e+01	0.000000e+00	0.0	9.900990e+01	0.000000e+00	0.0	1.009901e+02	0.000000e+00	0.0	1.029703e+02	0.000000e+00	0.0	1.049505e+02	0.000000e+00	0.0	1.069307e+02	0.000000e+00	0.0	1.089109e+02	0.000000e+00	0.0	1.108911e+02	0.000000e+00	0.0	1.128713e+02	0.000000e+00	0.0	1.148515e+02	0.000000e+00	0.0	1.168317e+02	0.000000e+00	0.0	1.188119e+02	0.000000e+00	0.0	1.207921e+02	0.000000e+00	0.0	1.227723e+02	0.000000e+00	0.0	1.247525e+02	0.000000e+00	0.0	1.267327e+02	0.000000e+00	0.0	1.287129e+02	0.000000e+00	0.0	1.306931e+02	0.000000e+00	0.0	1.326733e+02	0.000000e+00	0.0	1.346535e+02	0.000000e+00	0.0	1.366337e+02	0.000000e+00	0.0	1.386139e+02	0.000000e+00	0.0	1.405941e+02	0.000000e+00	0.0	1.425743e+02	0.000000e+00	0.0	1.445545e+02	0.000000e+00	0.0	1.465347e+02	0.000000e+00	0.0	1.485149e+02	0.000000e+00	0.0	1.504950e+02	0.000000e+00	0.0	1.524752e+02	0.000000e+00	0.0	1.544554e+02	0.000000e+00	0.0	1.564356e+02	0.000000e+00	0.0	1.584158e+02	0.000000e+00	0.0	1.603960e+02	0.000000e+00	0.0	1.623762e+02	0.000000e+00	0.0	1.643564e+02	0.000000e+00	0.0	1.663366e+02	0.000000e+00	0.0	1.683168e+02	0.000000e+00	0.0	1.702970e+02	0.000000e+00	0.0	1.722772e+02	0.000000e+00	0.0	1.742574e+02	0.000000e+00	0.0	1.762376e+02	0.000000e+00	0.0	1.782178e+02	0.000000e+00	0.0	1.801980e+02	0.000000e+00	0.0	1.821782e+02	0.000000e+00	0.0	1.841584e+02	0.000000e+00	0.0	1.861386e+02	0.000000e+00	0.0	1.881188e+02	0.000000e+00	0.0	1.900990e+02	0.000000e+00	0.0	1.920792e+02	0.000000e+00	0.0	1.940594e+02	0.000000e+00	0.0	1.960396e+02	0.000000e+00	0.0	1.980198e+02	0.000000e+00	0.0	2.000000e+02	0.000000e+00	0.0	0.000000e+00	1.980198e+00	0.0	1.980198e+00	1.980198e+00	0.0	3.960396e+00	1.980198e+00	0.0	5.940594e+00	1.980198e+00	0.0	7.920792e+00	1.980198e+00	0.0	9.900990e+00	1.980198e+00	0.0	1.188119e+01	1.980198e+00	0.0	1.386139e+01	1.980198e+00	0.0	1.584158e+01	1.980198e+00	0.0	1.782178e+01	1.980198e+00	0.0	1.980198e+01	1.980198e+00	0.0	2.178218e+01	1.980198e+00	0.0	2.376238e+01	1.980198e+00	0.0	2.574257e+01	1.980198e+00	0.0	2.772277e+01	1.980198e+00	0.0	2.970297e+01	1.980198e+00	0.0	3.168317e+01	1.980198e+00	0.0	3.366337e+01	1.980198e+00	0.0	3.564356e+01	1.980198e+00	0.0	3.762376e+01	1.980198e+00	0.0	3.960396e+01	1.980198e+00	0.0	4.158416e+01	1.980198e+00	0.0	4.356436e+01	1.980198e+00	0.0	4.554455e+01	1.980198e+00	0.0	4.752475e+01	1.980198e+00	0.0	4.950495e+01	1.980198e+00	0.0	5.148515e+01	1.980198e+00	0.0	5.346535e+01	1.980198e+00	0.0	5.544554e+01	1.980198e+00	0.0	5.742574e+01	1.980198e+00	0.0	5.940594e+01	1.980198e+00	0.0	6.138614e+01	1.980198e+00	0.0	6.336634e+01	1.980198e+00	0.0	6.534653e+01	1.980198e+00	0.0	6.732673e+01	1.980198e+00	0.0	6.930693e+01	1.980198e+00	0.0	7.128713e+01	1.980198e+00	0.0	7.326733e+01	1.980198e+00	0.0	7.524752e+01	1.980198e+00	0.0	7.722772e+01	1.980198e+00	0.0	7.920792e+01	1.980198e+00	0.0	8.118812e+01	1.980198e+00	0.0	8.316832e+01	1.980198e+00	0.0	8.514851e+01	1.980198e+00	0.0	8.712871e+01	1.980198e+00	0.0	8.910891e+01	1.980198e+00	0.0	9.108911e+01	1.980198e+00	0.0	9.306931e+01	1.980198e+00	0.0	9.504950e+01	1.980198e+00	0.0	9.702970e+01	1.980198e+00	0.0	9.900990e+01	1.980198e+00	0.0	1.009901e+02	1.980198e+00	0.0	1.029703e+02	1.980198e+00	0.0	1.049505e+02	1.980198e+00	0.0	1.069307e+02	1.980198e+00	0.0	1.089109e+02	1.980198e+00	0.0	1.108911e+02	1.980198e+00	0.0	1.128713e+02	1.980198e+00	0.0	1.148515e+02	1.980198e+00	0.0	1.168317e+02	1.980198e+00	0.0	1.188119e+02	1.980198e+00	0.0	1.207921e+02	1.980198e+00	0.0	1.227723e+02	1.980198e+00	0.0	1.247525e+02	1.980198e+00	0.0	1.267327e+02	1.980198e+00	0.0	1.287129e+02	1.980198e+00	0.0	1.306931e+02	1.980198e+00	0.0	1.326733e+02	1.980198e+00	0.0	1.346535e+02	1.980198e+00	0.0	1.366337e+02	1.980198e+00	0.0	1.386139e+02	1.980198e+00	0.0	1.405941e+02	1.980198e+00	0.0	1.425743e+02	1.980198e+00	0.0	1.445545e+02	1.980198e+00	0.0	1.465347e+02	1.980198e+00	0.0	1.485149e+02	1.980198e+00	0.0	1.504950e+02	1.980198e+00	0.0	1.524752e+02	1.980198e+00	0.0	1.544554e+02	1.980198e+00	0.0	1.564356e+02	1.980198e+00	0.0	1.584158e+02	1.980198e+00	0.0	1.603960e+02	1.980198e+00	0.0	1.623762e+02	1.980198e+00	0.0	1.643564e+02	1.980198e+00	0.0	1.663366e+02	1.980198e+00	0.0	1.683168e+02	1.980198e+00	0.0	1.702970e+02	1.980198e+00	0.0	1.722772e+02	1.980198e+00	0.0	1.742574e+02	1.980198e+00	0.0	1.762376e+02	1.980198e+00	0.0	1.782178e+02	1.980198e+00	0.0	1.801980e+02	1.980198e+00	0.0	1.821782e+02	1.980198e+00	0.0	1.841584e+02	1.980198e+00	0.0	1.861386e+02	1.980198e+00	0.0	1.881188e+02	1.980198e+00	0.0	1.900990e+02	1.980198e+00	0.0	1.920792e+02	1.980198e+00	0.0	1.940594e+02	1.980198e+00	0.0	1.960396e+02	1.980198e+00	0.0	1.980198e+02	1.980198e+00	0.0	2.000000e+02	1.980198e+00	0.0	0.000000e+00	3.960396e+00	0.0	1.980198e+00	3.960396e+00	0.0	3.960396e+00	3.960396e+00	0.0	5.940594e+00	3.960396e+00	0.0	7.920792e+00	3.960396e+00	0.0	9.900990e+00	3.960396e+00	0.0	1.188119e+01	3.960396e+00	0.0	1.386139e+01	3.960396e+00	0.0	1.584158e+01	3.960396e+00	0.0	1.782178e+01	3.960396e+00	0.0	1.980198e+01	3.960396e+00	0.0	2.178218e+01	3.960396e+00	0.0	2.376238e+01	3.960396e+00	0.0	2.574257e+01	3.960396e+00	0.0	2.772277e+01	3.960396e+00	0.0	2.970297e+01	3.960396e+00	0.0	3.168317e+01	3.960396e+00	0.0	3.366337e+01	3.960396e+00	0.0	3.564356e+01	3.960396e+00	0.0	3.762376e+01	3.960396e+00	0.0	3.960396e+01	3.960396e+00	0.0	4.158416e+01	3.960396e+00	0.0	4.356436e+01	3.960396e+00	0.0	4.554455e+01	3.960396e+00	0.0	4.752475e+01	3.960396e+00	0.0	4.950495e+01	3.960396e+00	0.0	5.148515e+01	3.960396e+00	0.0	5.346535e+01	3.960396e+00	0.0	5.544554e+01	3.960396e+00	0.0	5.742574e+01	3.960396e+00	0.0	5.940594e+01	3.960396e+00	0.0	6.138614e+01	3.960396e+00	0.0	6.336634e+01	3.960396e+00	0.0	6.534653e+01	3.960396e+00	0.0	6.732673e+01	3.960396e+00	0.0	6.930693e+01	3.960396e+00	0.0	7.128713e+01	3.960396e+00	0.0	7.326733e+01	3.960396e+00	0.0	7.524752e+01	3.960396e+00	0.0	7.722772e+01	3.960396e+00	0.0	7.920792e+01	3.960396e+00	0.0	8.118812e+01	3.960396e+00	0.0	8.316832e+01	3.960396e+00	0.0	8.514851e+01	3.960396e+00	0.0	8.712871e+01	3.960396e+00	0.0	8.910891e+01	3.960396e+00	0.0	9.108911e+01	3.960396e+00	0.0	9.306931e+01	3.960396e+00	0.0	9.504950e+01	3.960396e+00	0.0	9.702970e+01	3.960396e+00	0.0	9.900990e+01	3.960396e+00	0.0	1.009901e+02	3.960396e+00	0.0	1.029703e+02	3.960396e+00	0.0	1.049505e+02	3.960396e+00	0.0	1.069307e+02	3.960396e+00	0.0	1.089109e+02	3.960396e+00	0.0	1.108911e+02	3.960396e+00	0.0	1.128713e+02	3.960396e+00	0.0	1.148515e+02	3.960396e+00	0.0	1.168317e+02	3.960396e+00	0.0	1.188119e+02	3.960396e+00	0.0	1.207921e+02	3.960396e+00	0.0	1.227723e+02	3.960396e+00	0.0	1.247525e+02	3.960396e+00	0.0	1.267327e+02	3.960396e+00	0.0	1.287129e+02	3.960396e+00	0.0	1.306931e+02	3.960396e+00	0.0	1.326733e+02	3.960396e+00	0.0	1.346535e+02	3.960396e+00	0.0	1.366337e+02	3.960396e+00	0.0	1.386139e+02	3.960396e+00	0.0	1.405941e+02	3.960396e+00	0.0	1.425743e+02	3.960396e+00	0.0	1.445545e+02	3.960396e+00	0.0	1.465347e+02	3.960396e+00	0.0	1.485149e+02	3.960396e+00	0.0	1.504950e+02	3.960396e+00	0.0	1.524752e+02	3.960396e+00	0.0	1.544554e+02	3.960396e+00	0.0	1.564356e+02	3.960396e+00	0.0	1.584158e+02	3.960396e+00	0.0	1.603960e+02	3.960396e+00	0.0	1.623762e+02	3.960396e+00	0.0	1.643564e+02	3.960396e+00	0.0	1.663366e+02	3.960396e+00	0.0	1.683168e+02	3.960396e+00	0.0	1.702970e+02	3.960396e+00	0.0	1.722772e+02	3.960396e+00	0.0	1.742574e+02	3.960396e+00	0.0	1.762376e+02	3.960396e+00	0.0	1.782178e+02	3.960396e+00	0.0	1.801980e+02	3.960396e+00	0.0	1.821782e+02	3.960396e+00	0.0	1.841584e+02	3.960396e+00	0.0	1.861386e+02	3.960396e+00	0.0	1.881188e+02	3.960396e+00	0.0	1.900990e+02	3.960396e+00	0.0	1.920792e+02	3.960396e+00	0.0	1.940594e+02	3.960396e+00	0.0	1.960396e+02	3.960396e+00	0.0	1.980198e+02	3.960396e+00	0.0	2.000000e+02	3.960396e+00	0.0	0.000000e+00	5.940594e+00	0.0	1.980198e+00	5.940594e+00	0.0	3.960396e+00	5.940594e+00	0.0	5.940594e+00	5.940594e+00	0.0	7.920792e+00	5.940594e+00	0.0	9.900990e+00	5.940594e+00	0.0	1.188119e+01	5.940594e+00	0.0	1.386139e+01	5.940594e+00	0.0	1.584158e+01	5.940594e+00	0.0	1.782178e+01	5.940594e+00	0.0	1.980198e+01	5.940594e+00	0.0	2.178218e+01	5.940594e+00	0.0	2.376238e+01	5.940594e+00	0.0	2.574257e+01	5.940594e+00	0.0	2.772277e+01	5.940594e+00	0.0	2.970297e+01	5.940594e+00	0.0	3.168317e+01	5.940594e+00	0.0	3.366337e+01	5.940594e+00	0.0	3.564356e+01	5.940594e+00	0.0	3.762376e+01	5.940594e+00	0.0	3.960396e+01	5.940594e+00	0.0	4.158416e+01	5.940594e+00	0.0	4.356436e+01	5.940594e+00	0.0	4.554455e+01	5.940594
[...]
POINT_DATA 10404

SCALARS Height double 1
LOOKUP_TABLE default
4.000000e+00	4.000000e+00	4.000000e+00	4.000000e+00	4.000000e+00	4.000000e+00	4.000000e+00	4.000000e+00	4.000000e+00	4.000000e+00	4.000000e+00	4.000000e+00	4.000000e+00	4.000000e+00	4.000000e+00	4.000000e+00	4.000000e+00	4.000000e+00	4.000000e+00	4.000000e+00	4.000000e+00	3.999998e+00	3.999991e+00	3.999961e+00	3.999835e+00	3.999297e+00	3.996992e+00	3.987028e+00	3.945325e+00	3.856168e+00	3.745329e+00	3.625408e+00	3.501416e+00	3.376350e+00	3.252341e+00	3.130476e+00	3.011063e+00	2.894011e+00	2.779192e+00	2.666577e+00	2.556182e+00	2.448027e+00	2.342016e+00	2.237948e+00	2.135695e+00	2.035074e+00	1.944451e+00	1.902566e+00	1.886214e+00	1.879990e+00	1.894046e+00	1.917320e+00	1.929809e+00	1.934787e+00	1.941066e+00	1.947023e+00	1.953944e+00	1.960519e+00	1.965981e+00	1.969682e+00	1.971032e+00	1.971792e+00	1.974093e+00	1.977797e+00	1.983078e+00	1.992050e+00	2.005780e+00	2.023954e+00	2.044668e+00	2.055820e+00	1.975097e+00	1.540167e+00	1.063332e+00	1.001929e+00	1.000050e+00	1.000001e+00	1.000000e+00	1.000000e+00	1.000000e+00	1.000000e+00	1.000000e+00	1.000000e+00	1.000000e+00	1.000000e+00	1.000000e+00	1.000000e+00	1.000000e+00	1.000000e+00	1.000000e+00	1.000000e+00	1.000000e+00	1.000000e+00	1.000000e+00	1.000000e+00	1.000000e+00	1.000000e+00	1.000000e+00	1.000000e+00	1.000000e+00	1.000000e+00	1.000000e+00	1.000000e+00	4.000000e+00	4.000000e+00	4.000000e+00	4.000000e+00	4.000000e+00	4.000000e+00	4.000000e+00	4.000000e+00	4.000000e+00	4.000000e+00	4.000000e+00	4.000000e+00	4.000000e+00	4.000000e+00	4.000000e+00	4.000000e+00	4.000000e+00	4.000000e+00	4.000000e+00	4.000000e+00	4.000000e+00	3.999999e+00	3.999996e+00	3.999984e+00	3.999932e+00	3.999700e+00	3.998594e+00	3.992295e+00	3.948746e+00	3.852685e+00	3.742788e+00	3.624782e+00	3.502044e+00	3.377835e+00	3.254499e+00	3.133163e+00	3.014252e+00	2.897659e+00	2.783214e+00	2.670992e+00	2.561032e+00	2.453220e+00	2.347460e+00	2.243655e+00	2.141647e+00	2.041184e+00	1.951074e+00	1.909164e+00	1.892288e+00	1.885729e+00	1.898731e+00	1.922637e+00	1.935442e+00	1.942068e+00	1.949725e+00	1.955877e+00	1.962531e+00	1.969009e+00	1.974921e+00	1.979349e+00	1.982022e+00	1.984453e+00	1.987178e+00	1.992046e+00	1.999331e+00	2.008095e+00	2.021595e+00	2.037304e+00	2.052773e+00	2.061760e+00	1.999637e+00	1.505039e+00	1.020227e+00	1.000305e+00	1.000004e+00	1.000000e+00	1.000000e+00	1.000000e+00	1.000000e+00	1.000000e+00	1.000000e+00	1.000000e+00	1.000000e+00	1.000000e+00	1.000000e+00	1.000000e+00	1.000000e+00	1.000000e+00	1.000000e+00	1.000000e+00	1.000000e+00	1.000000e+00	1.000000e+00	1.000000e+00	1.000000e+00	1.000000e+00	1.000000e+00	1.000000e+00	1.000000e+00	1.000000e+00	1.000000e+00	1.000000e+00	4.000000e+00	4.000000e+00	4.000000e+00	4.000000e+00	4.000000e+00	4.000000e+00	4.000000e+00	4.000000e+00	4.000000e+00	4.000000e+00	4.000000e+00	4.000000e+00	4.000000e+00	4.000000e+00	4.000000e+00	4.000000e+00	4.000000e+00	4.000000e+00	4.000000e+00	4.000000e+00	4.000000e+00	4.000000e+00	3.999999e+00	3.999994e+00	3.999970e+00	3.999855e+00	3.999171e+00	3.993883e+00	3.947736e+00	3.843101e+00	3.730527e+00	3.611818e+00	3.490486e+00	3.366454e+00	3.242470e+00	3.120428e+00	3.000521e+00	2.882990e+00	2.768007e+00	2.655388e+00	2.545032e+00	2.437041e+00	2.331133e+00	2.227053e+00	2.124846e+00	2.024061e+00	1.935967e+00	1.896149e+00	1.880040e+00	1.874207e+00	1.888472e+00	1.910569e+00	1.924491e+00	1.936211e+00	1.947774e+00	1.956997e+00	1.965518e+00	1.973416e+00	1.981501e+00	1.988576e+00	1.993732e+00	1.998232e+00	2.002026e+00	2.007566e+00	2.013505e+00	2.019632e+00	2.025328e+00	2.031273e+00	2.037718e+00	2.036924e+00	1.975990e+00	1.502570e+00	1.019595e+00	1.000257e+00	1.000002e+00	1.000000e+00	1.000000e+00	1.000000e+00	1.000000e+00	1.000000e+00	1.000000e+00	1.000000e+00	1.000000e+00	1.000000e+00	1.000000e+00	1.000000e+00	1.000000e+00	1.000000e+00	1.000000e+00	1.000000e+00	1.000000e+00	1.000000e+00	1.000000e+00	1.000000e+00	1.000000e+00	1.000000e+00	1.000000e+00	1.000000e+00	1.000000e+00	1.000000e+00	1.000000e+00	1.000000e+00	4.000000e+00	4.000000e+00	4.000000e+00	4.000000e+00	4.000000e+00	4.000000e+00	4.000000e+00	4.000000e+00	4.000000e+00	4.000000e+00	4.000000e+00	4.000000e+00	4.000000e+00	4.000000e+00	4.000000e+00	4.000000e+00	4.000000e+00	4.000000e+00	4.000000e+00	4.000000e+00	4.000000e+00	4.000000e+00	4.000000e+00	3.999998e+00	3.999988e+00	3.999924e+00	3.999418e+00	3.994544e+00	3.945895e+00	3.832539e+00	3.715005e+00	3.596959e+00	3.476599e+00	3.356217e+00	3.234111e+00	3.112365e+00	2.992973e+00	2.876066e+00	2.761681e+00	2.649794e+00	2.540174e+00	2.432680e+00	2.327318e+00	2.223785e+00	2.121883e+00	2.021306e+00	1.936425e+00	1.898426e+00	1.882980e+00	1.877680e+00	1.892334e+00	1.912091e+00	1.926221e+00	1.940523e+00	1.953982e+00	1.964401e+00	1.973222e+00	1.981369e+00	1.989592e+00	1.998446e+00	2.008076e+00	2.016442e+00	2.022697e+00	2.028940e+00	2.033864e+00	2.036145e+00	2.037421e+00	2.031965e+00	2.028237e+00	2.019641e+00	1.954090e+00	1.495827e+00	1.019906e+00	1.000265e+00	1.000002e+00	1.000000e+00	1.000000e+00	1.000000e+00	1.000000e+00	1.000000e+00	1.000000e+00	1.000000e+00	1.000000e+00	1.000000e+00	1.000000e+00	1.000000e+00	1.000000e+00	1.000000e+00	1.000000e+00	1.000000e+00	1.000000e+00	1.000000e+00	1.000000e+00	1.000000e+00	1.000000e+00	1.000000e+00	1.000000e+00	1.000000e+00	1.000000e+00	1.000000e+00	1.000000e+00	1.000000e+00	4.000000e+00	4.000000e+00	4.000000e+00	4.000000e+00	4.000000e+00	4.000000e+00	4.000000e+00	4.000000e+00	4.000000e+00	4.000000e+00	4.000000e+00	4.000000e+00	4.000000e+00	4.000000e+00	4.000000e+00	4.000000e+00	4.000000e+00	4.000000e+00	4.000000e+00	4.000000e+00	4.000000e+00	4.000000e+00	4.000000e+00	3.999999e+00	3.999994e+00	3.999947e+00	3.999470e+00	3.994100e+00	3.939950e+00	3.819315e+00	3.696269e+00	3.575843e+00	3.457534e+00	3.338388e+00	3.219796e+00	3.100127e+00	2.981435e+00	2.865073e+00	2.750934e+00	2.639402e+00	2.530332e+00	2.423153e+00	2.318020e+00	2.214837e+00	2.113155e+00	2.012291e+00	1.931185e+00	1.895939e+00	1.881959e+00	1.878007e+00	1.893618e+00	1.910645e+00	1.923369e+00	1.938218e+00	1.952631e+00	1.964419e+00	1.974512e+00	1.983815e+00	1.992914e+00	2.002428e+00	2.013409e+00	2.026060e+00	2.035875e+00	2.042965e+00	2.045932e+00	2.044574e+00	2.035144e+00	2.025182e+00	2.018111e+00	2.008272e+00	1.939191e+00	1.462526e+00	1.017252e+00	1.000223e+00	1.000002e+00	1.000000e+00	1.000000e+00	1.000000e+00	1.000000e+00	1.000000e+00	1.000000e+00	1.000000e+00	1.000000e+00	1.000000e+00	1.000000e+00	1.000000e+00	1.000000e+00	1.000000e+00	1.000000e+00	1.000000e+00	1.000000e+00	1.000000e+00	1.000000e+00	1.000000e+00	1.000000e+00	1.000000e+00	1.000000e+00	1.000000e+00	1.000000e+00	1.000000e+00	1.000000e+00	1.000000e+00	4.000000e+00	4.000000e+00	4.000000e+00	4.000000e+00	4.000000e+00	4.000000e+00	4.000000e+00	4.000000e+00	4.000000e+00	4.000000e+00	4.000000e+00	4.000000e+00	4.000000e+00	4.000000e+00	4.000000e+00	4.000000e+00	4.000000e+00	4.000000e+00	4.000000e+00	4.000000e+00	4.000000e+00	4.000000e+00	4.000000e+00	3.999999e+00	3.999994e+00	3.999940e+00	3.999345e+00	3.992623e+00	3.927670e+00	3.802094e+00	3.675339e+00	3.551892e+00	3.432685e+00	3.315755e+00	3.199229e+00	3.083859e+00	2.967607e+00	2.852153e+00	2.738858e+00	2.627590e+00	2.518861e+00	2.412292e+00	2.307491e+00	2.204571e+00	2.103060e+00	2.002069e+00	1.925290e+00	1.893250e+00	1.880801e+00	1.879416e+00	1.898437e+00	1.912665e+00	1.919809e+00	1.931726e+00	1.945568e+00	1.958509e+00	1.969903e+00	1.981240e+00	1.992336e+00	2.001849e+00	2.009875e+00	2.018472e+00	2.028643e+00	2.038289e+00	2.044748e+00	2.040021e+00	2.029403e+00	2.020183e+00	2.015600e+00	2.004559e+00	1.928668e+00	1.414214e+00	1.013457e+00	1.000156e+00	1.000001e+00	1.000000e+00	1.000000e+00	1.000000e+00	1.000000e+00	1.000000e+00	1.000000e+00	1.000000e+00	1.000000e+00	1.000000e+00	1.000000e+00	1.000000e+00	1.000000e+00	1.000000e+00	1.000000e+00	1.000000e+00	1.000000e+00	1.000000e+00	1.000000e+00	1.000000e+00	1.000000e+00	1.000000e+00	1.000000e+00	1.000000e+00	1.000000e+00	1.000000e+00	1.000000e+00	1.000000e+00	4.000000e+00	4.000000e+00	4.000000e+00	4.000000e+00	4.000000e+00	4.000000e+00	4.000000e+00	4.000000e+00	4.000000e+00	4.000000e+00	4.000000e+00	4.000000e+00	4.000000e+00	4.000000e+00	4.000000e+00	4.000000e+00	4.000000e+00	4.000000e+00	4.000000e+00	4.000000e+00	4.000000e+00	4.000000e+00	4.000000e+00	3.999999e+00	3.999992e+00	3.999917e+00	3.999048e+00	3.989495e+00	3.906683e+00	3.780100e+00	3.651819e+00	3.525775e+00	3.404940e+00	3.288748e+00	3.174814e+00	3.061776e+00	2.949899e+00	2.837219e+00	2.725148e+00	2.614774e+00	2.506338e+00	2.400310e+00	2.296117e+00	2.193515e+00	2.092242e+00	1.991295e+00	1.919285e+00	1.890460e+00	1.879583e+00	1.882054e+00	1.904351e+00	1.915468e+00	1.919169e+00	1.926658e+00	1.936328e+00	1.947876e+00	1.960009e+00	1.970685e+00	1.980670e+00	1.989762e+00	1.997574e+00	2.004269e+00	2.013219e+00	2.022027e+00	2.028218e+00	2.028176e+00	2.022641e+00	2.022066e+00	2.020793e+00	2.015626e+00	1.920009e+00	1.344753e+00	1.009224e+00	1.000095e+00	1.000001e+00	1.000000e+00	1.000000e+00	1.000000e+00	1.000000e+00	1.000000e+00	1.000000e+00	1.000000e+00	1.000000e+00	1.000000e+00	1.000000e+00	1.000000e+00	1.000000e+00	1.000000e+00	1.000000e+00	1.000000e+00	1.000000e+00	1.000000e+00	1.000000e+00	1.000000e+00	1.000000e+00	1.000000e+00	1.000000e+00	1.000000e+00	1.000000e+00	1.000000e+00	1.000000e+00	1.000000e+00	4.000000e+00	4.000000e+00	4.000000e+00	4.000000e+00	4.000000e+00	4.000000e+00	4.000000e+00	4.000000e+00	4.000000e+00	4.000000e+00	4.000000e+00	4.000000e+00	4.000000e+00	4.000000e+00	4.000000e+00	4.000000e+00	4.000000e+00	4.000000e+00	4.000000e+00	4.000000e+00	4.000000e+00	4.000000e+00	4.000000e+00	3.999999e+00	3.999988e+00	3.999863e+00	3.998430e+00	3.980535e+00	3.879133e+00	3.752399e+00	3.624822e+00	3.498357e+00	3.376273e+00	3.259652e+00	3.146839e+00	3.036044e+00	2.926340e+00	2.817848e+00	2.709082e+00	2.600414e+00	2.492982e+00	2.387380e+00	2.283884e+00	2.181937e+00	2.081095e+00	1.980699e+00	1.914442e+00	1.888743e+00	1.879153e+00	1.886824e+00	1.910352e+00	1.919422e+00	1.921512e+00	1.926640e+00	1.932877e+00	1.940253e+00	1.949340e+00	1.959410e+00	1.968369e+00	1.976668e+00	1.982971e+00	1.987511e+00	1.993038e+00	2.000029e+00	2.007378e+00	2.011620e+00	2.019076e+00	2.029542e+00	2.038669e+00	2.038794e+00	1.902144e+00	1.258972e+00	1.005403e+00	1.000046e+00	1.000000e+00	1.000000e+00	1.000000e+00	1.000000e+00	1.000000e+00	1.000000e+00	1.000000e+00	1.000000e+00	1.000000e+00	1.000000e+00	1.000000e+00	1.000000e+00	1.000000e+00	1.000000e+00	1.000000e+00	1.000000e+00	1.000000e+00	1.000000e+00	1.000000e+00	1.000000e+00	1.000000e+00	1.000000e+00	1.000000e+00	1.000000e+00	1.000000e+00	1.000000e+00	1.000000e+00	1.000000e+00	4.000000e+00	4.000000e+00	4.000000e+00	4.000000e+00	4.000000e+00	4.000000e+00	4.000000e+00	4.000000e+00	4.000000e+00	4.000000e+00	4.000000e+00	4.000000e+00	4.000000e+00	4.000000e+00	4.000000e+00	4.000000e+00	4.000000e+00	4.000000e+00	4.000000e+00	4.000000e+00	4.000000e+00	4.000000e+00	4.000000e+00	3.999998e+00	3.999979e+00	3.999751e+00	3.997010e+00	3.963145e+00	3.846038e+00	3.719136e+00	3.593391e+00	3.469431e+00	3.347488e+00	3.229883e+00	3.116500e+00	3.006786e+00	2.899207e+00	2.792364e+00	2.686927e+00	2.582499e+00	2.477726e+00	2.373202e+00	2.270486e+00	2.169583e+00	2.069771e+00	1.970918e+00	1.911612e+00	1.888920e+00	1.880454e+00	1.892693e+00	1.916090e+00	1.923963e+00	1.925430e+00	1.929987e+00	1.935345e+00	1.941363e+00	1.947810e+00	1.954138e+00	1.960739e+00	1.967171e+00	1.972839e+00	1.977149e+00	1.979027e+00	1.982943e+00	1.991138e+00	1.998709e+00	2.015801e+00	2.042396e+00	2.056587e+00	2.055401e+00	1.846587e+00	1.182769e+00	1.002757e+00	1.000020e+00	1.000000e+00	1.000000e+00	1.000000e+00	1.000000e+00	1.000000e+00	1.000000e+00	1.000000e+00	1.000000e+00	1.000000e+00	1.000000e+00	1.000000e+00	1.000000e+00	1.000000e+00	1.000000e+00	1.000000e+00	1.000000e+00	1.000000e+00	1.000000e+00	1.000000e+00	1.000000e+00	1.000000e+00	1.000000e+00	1.000000e+00	1.000000e+00	1.000000e+00	1.000000e+00	1.000000e+00	1.000000e+00	4.000000e+00	4.000000e+00	4.000000e+00	4.000000e+00	4.000000e+00	4.000000e+00	4.000000e+00	4.000000e+00	4.000000e+00	4.000000e+00	4.000000e+00	4.000000e+00	4.000000e+00	4.000000e+00	4.000000e+00	4.000000e+00	4.000000e+00	4.000000e+00	4.000000e+00	4.000000e+00	4.000000e+00	4.000000e+00	4.000000e+00	3.999996e+00	3.999958e+00	3.999498e+00	3.993862e+00	3.933046e+00	3.808344e+00	3.681443e+00	3.557392e+00	3.436991e+00	3.318014e+00	3.200665e+00	3.086438e+00	2.975235e+00	2.868142e+00	2.763425e+00	2.659604e+00	2.557221e+00	2.456440e+00	2.355910e+00	2.255121e+00	2.155567e+00	2.057666e+00	1.961414e+00	1.909740e+00	1.890191e+00	1.883214e+00	1.898724e+00	1.922157e+00	1.930092e+00	1.932568e+00	1.938206e+00	1.944042e+00	1.949705e+00	1.955837e+00	1.960279e+00	1.965070e+00	1.970361e+00	1.977328e+00	1.981693e+00	1.983947e+00	1.986420e+00	1.991024e+00	2.002504e+00	2.026833e+00	2.049839e+00	2.064196e+00	2.053658e+00	1.769083e+00	1.121981e+00	1.001341e+00	1.000010e+00	1.000000e+00	1.000000e+00	1.000000e+00	1.000000e+00	1.000000e+00	1.000000e+00	1.000000e+00	1.000000e+00	1.000000e+00	1.000000e+00	1.000000e+00	1.000000e+00	1.000000e+00	1.000000e+00	1.000000e+00	1.000000e+00	1.000000e+00	1.000000e+00	1.000000e+00	1.000000e+00	1.000000e+00	1.000000e+00	1.000000e+00	1.000000e+00	1.000000e+00	1.000000e+00	1.000000e+00	1.000000e+00	4.000000e+00	4.000000e+00	4.000000e+00	4.000000e+00	4.000000e+00	4.000000e+00	4.000000e+00	4.000000e+00	4.000000e+00	4.000000e+00	4.000000e+00	4.000000e+00	4.000000e+00	4.000000e+00	4.000000e+00	4.000000e+00	4.000000e+00	4.000000e+00	4.000000e+00	4.000000e+00	4.000000e+00	4.000000e+00	3.999999e+00	3.999993e+00	3.999909e+00	3.998887e+00	3.985994e+00	3.890535e+00	3.764619e+00	3.640004e+00	3.517690e+00	3.400119e+00	3.285120e+00	3.170179e+00	3.056792e+00	2.945141e+00	2.836857e+00	2.731662e+00	2.629312e+00	2.528363e+00	2.428892e+00	2.330824e+00	2.234091e+00	2.137987e+00	2.042737e+00	1.951685e+00	1.907569e+00	1.891944e+00	1.887248e+00	1.905968e+00	1.930566e+00	1.941759e+00	1.946939e+00	1.953331e+00	1.958901e+00	1.963572e+00	1.969254e+00	1.973824e+00	1.979408e+00	1.984168e+00	1.988816e+00	1.991500e+00	1.995359e+00	2.001529e+00	2.010850e+00	2.023752e+00	2.038484e+00	2.053112e+00	2.062141e+00	2.040262e+00	1.673255e+00	1.072215e+00	1.000586e+00	1.000006e+00	1.000000e+00	1.000000e+00	1.000000e+00	1.000000e+00	1.000000e+00	1.000000e+00	1.000000e+00	1.000000e+00	1.000000e+00	1.000000e+00	1.000000e+00	1.000000e+00	1.000000e+00	1.000000e+00	1.000000e+00	1.000000e+00	1.000000e+00	1.000000e+00	1.000000e+00	1.000000e+00	1.000000e+00	1.000000e+00	1.000000e+00	1.000000e+00	1.000000e+00	1.000000e+00	1.000000e+00	1.000000e+00	4.000000e+00	4.000000e+00	4.000000e+00	4.000000e+00	4.000000e+00	4.000000e+00	4.000000e+00	4.000000e+00	4.000000e+00	4.000000e+00	4.000000e+00	4.000000e+00	4.000000e+00	4.000000e+00	4.000000e+00	4.000000e+00	4.000000e+00	4.000000e+00	4.000000e+00	4.000000e+00	4.000000e+00	4.000000e+00	3.999999e+00	3.999982e+00	3.999780e+00	3.997192e+00	3.963490e+00	3.844357e+00	3.716767e+00	3.593713e+00	3.474722e+00	3.359682e+00	3.247652e+00	3.136707e+00	3.025408e+00	2.914890e+00	2.806031e+00	2.700349e+00	2.597817e+00	2.497690e+00	2.399162e+00	2.302471e+00	2.207605e+00	2.114820e+00	2.023134e+00	1.941502e+00	1.905069e+00	1.893646e+00	1.892940e+00	1.915597e+00	1.941524e+00	1.956266e+00	1.963444e+00	1.969980e+00	1.975045e+00	1.978933e+00	1.984151e+00	1.988388e+00	1.993743e+00	1.997708e+00	2.000759e+00	2.006187e+00	2.012622e+00	2.019740e+00	2.028305e+00	2.037833e+00	2.043588e+00	2.050277e+00	2.052025e+00	2.005845e+00	1.566133e+00	1.033580e+00	1.000330e+00	1.000003e+00	1.000000e+00	1.000000e+00	1.000000e+00	1.000000e+00	1.000000e+00	1.000000e+00	1.000000e+00	1.000000e+00	1.000000e+00	1.000000e+00	1.000000e+00	1.000000e+00	1.000000e+00	1.000000e+00	1.000000e+00	1.000000e+00	1.000000e+00	1.000000e+00	1.000000e+00	1.000000e+00	1.000000e+00	1.000000e+00	1.000000e+00	1.000000e+00	1.000000e+00	1.000000e+00	1.000000e+00	1.000000e+00	4.000000e+00	4.000000e+00	4.000000e+00	4.000000e+00	4.000000e+00	4.000000e+00	4.000000e+00	4.000000e+00	4.000000e+00	4.000000e+00	4.000000e+00	4.000000e+00	4.000000e+00	4.000000e+00	4.000000e+00	4.000000e+00	4.000000e+00	4.000000e+00	4.000000e+00	4.000000e+00	4.000000e+00	4.000000e+00	3.999996e+00	3.999954e+00	3.999408e+00	3.992519e+00	3.919544e+00	3.792725e+00	3.665431e+00	3.544056e+00	3.428189e+00	3.316021e+00	3.206421e+00	3.098623e+00	2.990919e+00	2.883147e+00	2.775583e+00	2.669578e+00	2.566225e+00	2.466078e+00	2.368233e+00	2.272422e+00	2.178931e+00	2.088228e+00	1.999519e+00	1.930758e+00	1.902821e+00	1.895798e+00	1.901809e+00	1.925317e+00	1.950982e+00	1.968843e+00	1.978476e+00	1.985100e+00	1.990355e+00	1.993949e+00	1.997457e+00	2.001129e+00	2.005510e+00	2.009196e+00	2.012519e+00	2.019831e+00	2.027136e+00	2.033382e+00	2.040955e+00	2.043703e+00	2.042735e+00	2.043254e+00	2.040009e+00	1.965561e+00	1.441246e+00	1.014457e+00	1.000166e+00	1.000001e+00	1.000000e+00	1.000000e+00	1.000000e+00	1.000000e+00	1.000000e+00	1.000000e+00	1.000000e+00	1.000000e+00	1.000000e+00	1.000000e+00	1.000000e+00	1.000000e+00	1.000000e+00	1.000000e+00	1.000000e+00	1.000000e+00	1.000000e+00	1.000000e+00	1.000000e+00	1.000000e+00	1.000000e+00	1.000000e+00	1.000000e+00	1.000000e+00	1.000000e+00	1.000000e+00	1.000000e+00	1.000000e+00	4.000000e+00	4.000000e+00	4.000000e+00	4.000000e+00	4.000000e+00	4.000000e+00	4.000000e+00	4.000000e+00	4.000000e+00	4.000000e+00	4.000000e+00	4.000000e+00	4.000000e+00	4.000000e+00	4.000000e+00	4.000000e+00	4.000000e+00	4.000000e+00	4.000000e+00	4.000000e+00	4.000000e+00	3.999999e+00	3.999989e+00	3.999864e+00	3.998285e+00	3.975953e+00	3.862722e+00	3.733976e+00	3.610048e+00	3.492000e+00	3.379245e+00	3.269638e+00	3.162172e+00	3.056547e+00	2.952696e+00	2.847570e+00	2.743552e+00	2.639192e+00	2.536292e+00	2.435469e+00	2.337352e+00	2.241925e+00	2.149165e+00	2.059864e+00	1.975135e+00	1.920580e+00	1.901581e+00	1.898687e+00	1.910360e+00	1.932120e+00	1.956244e+00	1.976373e+00	1.988963e+00	1.996727e+00	2.002707e+00	2.006739e+00	2.009233e+00	2.012831e+00	2.016214e+00	2.019197e+00	2.022550e+00	2.029653e+00	2.036838e+00	2.041464e+00	2.041136e+00	2.038512e+00	2.035849e+00	2.035712e+00	2.028138e+00	1.911269e+00	1.310519e+00	1.007541e+00	1.000073e+00	1.000001e+00	1.000000e+00	1.000000e+00	1.000000e+00	1.000000e+00	1.000000e+00	1.000000e+00	1.000000e+00	1.000000e+00	1.000000e+00	1.000000e+00	1.000000e+00	1.000000e+00	1.000000e+00	1.000000e+00	1.000000e+00	1.000000e+00	1.000000e+00	1.000000e+00	1.000000e+00	1.000000e+00	1.000000e+00	1.000000e+00	1.000000e+00	1.000000e+00	1.000000e+00	1.000000e+00	1.000000e+00	1.000000e+00	4.000000e+00	4.000000e+00	4.000000e+00	4.000000e+00	4.000000e+00	4.000000e+00	4.000000e+00	4.000000e+00	4.000000e+00	4.000000e+00	4.000000e+00	4.000000e+00	4.000000e+00	4.000000e+00	4.000000e+00	4.000000e+00	4.000000e+00	4.000000e+00	4.000000e+00	4.000000e+00	4.000000e+00	3.999997e+00	3.999967e+00	3.999565e+00	3.994229e+00	3.931593e+00	3.800580e+00	3.671030e+00	3.551338e+00	3.437935e+00	3.328439e+00	3.221176e+00	3.115596e+00	3.011693e+00	2.909456e+00	2.808800e+00	2.707099e+00	2.606669e+00	2.505997e+00	2.406336e+00	2.308636e+00	2.213186e+00	2.120885e+00	2.032678e+00	1.956093e+00	1.916118e+00	1.903803e+00	1.902764e+00	1.914337e+00	1.932369e+00	1.954218e+00	1.976083e+00	1.992310e+00	2.003063e+00	2.010804e+00	2.016756e+00	2.020299e+00	2.023327e+00	2.025281e+00	2.027230e+00	2.029706e+00	2.033378e+00	2.035857e+00	2.035294e+00	2.033602e+00	2.031708e+00	2.030763e+00	2.029572e+00	2.018572e+00	1.831320e+00	1.194413e+00	1.003328e+00	1.000027e+00	1.000000e+00	1.000000e+00	1.000000e+00	1.000000e+00	1.000000e+00	1.000000e+00	1.000000e+00	1.000000e+00	1.000000e+00	1.000000e+00	1.000000e+00	1.000000e+00	1.000000e+00	1.000000e+00	1.000000e+00	1.000000e+00	1.000000e+00	1.000000e+00	1.000000e+00	1.000000e+00	1.000000e+00	1.000000e+00	1.000000e+00	1.000000e+00	1.000000e+00	1.000000e+00	1.000000e+00	1.000000e+00	1.000000e+00	4.000000e+00	4.000000e+00	4.000000e+00	4.000000