# vtk DataFile Version 3.0
vtk output
ASCII
DATASET STRUCTURED_GRID
DIMENSIONS 102 102 1
POINTS 10404 double
0.000000e+00	0.000000e+00	0.0	1.980198e+00	0.000000e+00	0.0	3.960396e+00	0.000000e+00	0.0	5.940594e+00	0.000000e+00	0.0	7.920792e+00	0.000000e+00	0.0	9.900990e+00	0.000000e+00	0.0	1.188119e+01	0.000000e+00	0.0	1.386139e+01	0.000000e+00	0.0	1.584158e+01	0.000000e+00	0.0	1.782178e+01	0.000000e+00	0.0	1.980198e+01	0.000000e+00	0.0	2.178218e+01	0.000000e+00	0.0	2.376238e+01	0.000000e+00	0.0	2.574257e+01	0.000000e+00	0.0	2.772277e+01	0.000000e+00	0.0	2.970297e+01	0.000000e+00	0.0	3.168317e+01	0.000000e+00	0.0	3.366337e+01	0.000000e+00	0.0	3.564356e+01	0.000000e+00	0.0	3.762376e+01	0.000000e+00	0.0	3.960396e+01	0.000000e+00	0.0	4.158416e+01	0.000000e+00	0.0	4.356436e+01	0.000000e+00	0.0	4.554455e+01	0.000000e+00	0.0	4.752475e+01	0.000000e+00	0.0	4.950495e+01	0.000000e+00	0.0	5.148515e+01	0.000000e+00	0.0	5.346535e+01	0.000000e+00	0.0	5.544554e+01	0.000000e+00	0.0	5.742574e+01	0.000000e+00	0.0	5.940594e+01	0.000000e+00	0.0	6.138614e+01	0.000000e+00	0.0	6.336634e+01	0.000000e+00	0.0	6.534653e+01	0.000000e+00	0.0	6.732673e+01	0.000000e+00	0.0	6.930693e+01	0.000000e+00	0.0	7.128713e+01	0.000000e+00	0.0	7.326733e+01	0.000000e+00	0.0	7.524752e+01	0.000000e+00	0.0	7.722772e+01	0.000000e+00	0.0	7.920792e+01	0.000000e+00	0.0	8.118812e+01	0.000000e+00	0.0	8.316832e+01	0.000000e+00	0.0	8.514851e+01	0.000000e+00	0.0	8.712871e+01	0.000000e+00	0.0	8.910891e+01	0.000000e+00	0.0	9.108911e+01	0.000000e+00	0.0	9.306931e+01	0.000000e+00	0.0	9.504950e+01	0.000000e+00	0.0	9.702970e+01	0.000000e+00	0.0	9.900990e+01	0.000000e+00	0.0	1.009901e+02	0.000000e+00	0.0	1.029703e+02	0.000000e+00	0.0	1.049505e+02	0.000000e+00	0.0	1.069307e+02	0.000000e+00	0.0	1.089109e+02	0.000000e+00	0.0	1.108911e+02	0.000000e+00	0.0	1.128713e+02	0.000000e+00	0.0	1.148515e+02	0.000000e+00	0.0	1.168317e+02	0.000000e+00	0.0	1.188119e+02	0.000000e+00	0.0	1.207921e+02	0.000000e+00	0.0	1.227723e+02	0.000000e+00	0.0	1.247525e+02	0.000000e+00	0.0	1.267327e+02	0.000000e+00	0.0	1.287129e+02	0.000000e+00	0.0	1.306931e+02	0.000000e+00	0.0	1.326733e+02	0.000000e+00	0.0	1.346535e+02	0.000000e+00	0.0	1.366337e+02	0.000000e+00	0.0	1.386139e+02	0.000000e+00	0.0	1.405941e+02	0.000000e+00	0.0	1.425743e+02	0.000000e+00	0.0	1.445545e+02	0.000000e+00	0.0	1.465347e+02	0.000000e+00	0.0	1.485149e+02	0.000000e+00	0.0	1.504950e+02	0.000000e+00	0.0	1.524752e+02	0.000000e+00	0.0	1.544554e+02	0.000000e+00	0.0	1.564356e+02	0.000000e+00	0.0	1.584158e+02	0.000000e+00	0.0	1.603960e+02	0.000000e+00	0.0	1.623762e+02	0.000000e+00	0.0	1.643564e+02	0.000000e+00	0.0	1.663366e+02	0.000000e+00	0.0	1.683168e+02	0.000000e+00	0.0	1.702970e+02	0.000000e+00	0.0	1.722772e+02	0.000000e+00	0.0	1.742574e+02	0.000000e+00	0.0	1.762376e+02	0.000000e+00	0.0	1.782178e+02	0.000000e+00	0.0	1.801980e+02	0.000000e+00	0.0	1.821782e+02	0.000000e+00	0.0	1.841584e+02	0.000000e+00	0.0	1.861386e+02	0.000000e+00	0.0	1.881188e+02	0.000000e+00	0.0	1.900990e+02	0.000000e+00	0.0	1.920792e+02	0.000000e+00	0.0	1.940594e+02	0.000000e+00	0.0	1.960396e+02	0.000000e+00	0.0	1.980198e+02	0.000000e+00	0.0	2.000000e+02	0.000000e+00	0.0	0.000000e+00	1.980198e+00	0.0	1.980198e+00	1.980198e+00	0.0	3.960396e+00	1.980198e+00	0.0	5.940594e+00	1.980198e+00	0.0	7.920792e+00	1.980198e+00	0.0	9.900990e+00	1.980198e+00	0.0	1.188119e+01	1.980198e+00	0.0	1.386139e+01	1.980198e+00	0.0	1.584158e+01	1.980198e+00	0.0	1.782178e+01	1.980198e+00	0.0	1.980198e+01	1.980198e+00	0.0	2.178218e+01	1.980198e+00	0.0	2.376238e+01	1.980198e+00	0.0	2.574257e+01	1.980198e+00	0.0	2.772277e+01	1.980198e+00	0.0	2.970297e+01	1.980198e+00	0.0	3.168317e+01	1.980198e+00	0.0	3.366337e+01	1.980198e+00	0.0	3.564356e+01	1.980198e+00	0.0	3.762376e+01	1.980198e+00	0.0	3.960396e+01	1.980198e+00	0.0	4.158416e+01	1.980198e+00	0.0	4.356436e+01	1.980198e+00	0.0	4.554455e+01	1.980198e+00	0.0	4.752475e+01	1.980198e+00	0.0	4.950495e+01	1.980198e+00	0.0	5.148515e+01	1.980198e+00	0.0	5.346535e+01	1.980198e+00	0.0	5.544554e+01	1.980198e+00	0.0	5.742574e+01	1.980198e+00	0.0	5.940594e+01	1.980198e+00	0.0	6.138614e+01	1.980198e+00	0.0	6.336634e+01	1.980198e+00	0.0	6.534653e+01	1.980198e+00	0.0	6.732673e+01	1.980198e+00	0.0	6.930693e+01	1.980198e+00	0.0	7.128713e+01	1.980198e+00	0.0	7.326733e+01	1.980198e+00	0.0	7.524752e+01	1.980198e+00	0.0	7.722772e+01	1.980198e+00	0.0	7.920792e+01	1.980198e+00	0.0	8.118812e+01	1.980198e+00	0.0	8.316832e+01	1.980198e+00	0.0	8.514851e+01	1.980198e+00	0.0	8.712871e+01	1.980198e+00	0.0	8.910891e+01	1.980198e+00	0.0	9.108911e+01	1.980198e+00	0.0	9.306931e+01	1.980198e+00	0.0	9.504950e+01	1.980198e+00	0.0	9.702970e+01	1.980198e+00	0.0	9.900990e+01	1.980198e+00	0.0	1.009901e+02	1.980198e+00	0.0	1.029703e+02	1.980198e+00	0.0	1.049505e+02	1.980198e+00	0.0	1.069307e+02	1.980198e+00	0.0	1.089109e+02	1.980198e+00	0.0	1.108911e+02	1.980198e+00	0.0	1.128713e+02	1.980198e+00	0.0	1.148515e+02	1.980198e+00	0.0	1.168317e+02	1.980198e+00	0.0	1.188119e+02	1.980198e+00	0.0	1.207921e+02	1.980198e+00	0.0	1.227723e+02	1.980198e+00	0.0	1.247525e+02	1.980198e+00	0.0	1.267327e+02	1.980198e+00	0.0	1.287129e+02	1.980198e+00	0.0	1.306931e+02	1.980198e+00	0.0	1.326733e+02	1.980198e+00	0.0	1.346535e+02	1.980198e+00	0.0	1.366337e+02	1.980198e+00	0.0	1.386139e+02	1.980198e+00	0.0	1.405941e+02	1.980198e+00	0.0	1.425743e+02	1.980198e+00	0.0	1.445545e+02	1.980198e+00	0.0	1.465347e+02	1.980198e+00	0.0	1.485149e+02	1.980198e+00	0.0	1.504950e+02	1.980198e+00	0.0	1.524752e+02	1.980198e+00	0.0	1.544554e+02	1.980198e+00	0.0	1.564356e+02	1.980198e+00	0.0	1.584158e+02	1.980198e+00	0.0	1.603960e+02	1.980198e+00	0.0	1.623762e+02	1.980198e+00	0.0	1.643564e+02	1.980198e+00	0.0	1.663366e+02	1.980198e+00	0.0	1.683168e+02	1.980198e+00	0.0	1.702970e+02	1.980198e+00	0.0	1.722772e+02	1.980198e+00	0.0	1.742574e+02	1.980198e+00	0.0	1.762376e+02	1.980198e+00	0.0	1.782178e+02	1.980198e+00	0.0	1.801980e+02	1.980198e+00	0.0	1.821782e+02	1.980198e+00	0.0	1.841584e+02	1.980198e+00	0.0	1.861386e+02	1.980198e+00	0.0	1.881188e+02	1.980198e+00	0.0	1.900990e+02	1.980198e+00	0.0	1.920792e+02	1.980198e+00	0.0	1.940594e+02	1.980198e+00	0.0	1.960396e+02	1.980198e+00	0.0	1.980198e+02	1.980198e+00	0.0	2.000000e+02	1.980198e+00	0.0	0.000000e+00	3.960396e+00	0.0	1.980198e+00	3.960396e+00	0.0	3.960396e+00	3.960396e+00	0.0	5.940594e+00	3.960396e+00	0.0	7.920792e+00	3.960396e+00	0.0	9.900990e+00	3.960396e+00	0.0	1.188119e+01	3.960396e+00	0.0	1.386139e+01	3.960396e+00	0.0	1.584158e+01	3.960396e+00	0.0	1.782178e+01	3.960396e+00	0.0	1.980198e+01	3.960396e+00	0.0	2.178218e+01	3.960396e+00	0.0	2.376238e+01	3.960396e+00	0.0	2.574257e+01	3.960396e+00	0.0	2.772277e+01	3.960396e+00	0.0	2.970297e+01	3.960396e+00	0.0	3.168317e+01	3.960396e+00	0.0	3.366337e+01	3.960396e+00	0.0	3.564356e+01	3.960396e+00	0.0	3.762376e+01	3.960396e+00	0.0	3.960396e+01	3.960396e+00	0.0	4.158416e+01	3.960396e+00	0.0	4.356436e+01	3.960396e+00	0.0	4.554455e+01	3.960396e+00	0.0	4.752475e+01	3.960396e+00	0.0	4.950495e+01	3.960396e+00	0.0	5.148515e+01	3.960396e+00	0.0	5.346535e+01	3.960396e+00	0.0	5.544554e+01	3.960396e+00	0.0	5.742574e+01	3.960396e+00	0.0	5.940594e+01	3.960396e+00	0.0	6.138614e+01	3.960396e+00	0.0	6.336634e+01	3.960396e+00	0.0	6.534653e+01	3.960396e+00	0.0	6.732673e+01	3.960396e+00	0.0	6.930693e+01	3.960396e+00	0.0	7.128713e+01	3.960396e+00	0.0	7.326733e+01	3.960396e+00	0.0	7.524752e+01	3.960396e+00	0.0	7.722772e+01	3.960396e+00	0.0	7.920792e+01	3.960396e+00	0.0	8.118812e+01	3.960396e+00	0.0	8.316832e+01	3.960396e+00	0.0	8.514851e+01	3.960396e+00	0.0	8.712871e+01	3.960396e+00	0.0	8.910891e+01	3.960396e+00	0.0	9.108911e+01	3.960396e+00	0.0	9.306931e+01	3.960396e+00	0.0	9.504950e+01	3.960396e+00	0.0	9.702970e+01	3.960396e+00	0.0	9.900990e+01	3.960396e+00	0.0	1.009901e+02	3.960396e+00	0.0	1.029703e+02	3.960396e+00	0.0	1.049505e+02	3.960396e+00	0.0	1.069307e+02	3.960396e+00	0.0	1.089109e+02	3.960396e+00	0.0	1.108911e+02	3.960396e+00	0.0	1.128713e+02	3.960396e+00	0.0	1.148515e+02	3.960396e+00	0.0	1.168317e+02	3.960396e+00	0.0	1.188119e+02	3.960396e+00	0.0	1.207921e+02	3.960396e+00	0.0	1.227723e+02	3.960396e+00	0.0	1.247525e+02	3.960396e+00	0.0	1.267327e+02	3.960396e+00	0.0	1.287129e+02	3.960396e+00	0.0	1.306931e+02	3.960396e+00	0.0	1.326733e+02	3.960396e+00	0.0	1.346535e+02	3.960396e+00	0.0	1.366337e+02	3.960396e+00	0.0	1.386139e+02	3.960396e+00	0.0	1.405941e+02	3.960396e+00	0.0	1.425743e+02	3.960396e+00	0.0	1.445545e+02	3.960396e+00	0.0	1.465347e+02	3.960396e+00	0.0	1.485149e+02	3.960396e+00	0.0	1.504950e+02	3.960396e+00	0.0	1.524752e+02	3.960396e+00	0.0	1.544554e+02	3.960396e+00	0.0	1.564356e+02	3.960396e+00	0.0	1.584158e+02	3.960396e+00	0.0	1.603960e+02	3.960396e+00	0.0	1.623762e+02	3.960396e+00	0.0	1.643564e+02	3.960396e+00	0.0	1.663366e+02	3.960396e+00	0.0	1.683168e+02	3.960396e+00	0.0	1.702970e+02	3.960396e+00	0.0	1.722772e+02	3.960396e+00	0.0	1.742574e+02	3.960396e+00	0.0	1.762376e+02	3.960396e+00	0.0	1.782178e+02	3.960396e+00	0.0	1.801980e+02	3.960396e+00	0.0	1.821782e+02	3.960396e+00	0.0	1.841584e+02	3.960396e+00	0.0	1.861386e+02	3.960396e+00	0.0	1.881188e+02	3.960396e+00	0.0	1.900990e+02	3.960396e+00	0.0	1.920792e+02	3.960396e+00	0.0	1.940594e+02	3.960396e+00	0.0	1.960396e+02	3.960396e+00	0.0	1.980198e+02	3.960396e+00	0.0	2.000000e+02	3.960396e+00	0.0	0.000000e+00	5.940594e+00	0.0	1.980198e+00	5.940594e+00	0.0	3.960396e+00	5.940594e+00	0.0	5.940594e+00	5.940594e+00	0.0	7.920792e+00	5.940594e+00	0.0	9.900990e+00	5.940594e+00	0.0	1.188119e+01	5.940594e+00	0.0	1.386139e+01	5.940594e+00	0.0	1.584158e+01	5.940594e+00	0.0	1.782178e+01	5.940594e+00	0.0	1.980198e+01	5.940594e+00	0.0	2.178218e+01	5.940594e+00	0.0	2.376238e+01	5.940594e+00	0.0	2.574257e+01	5.940594e+00	0.0	2.772277e+01	5.940594e+00	0.0	2.970297e+01	5.940594e+00	0.0	3.168317e+01	5.940594e+00	0.0	3.366337e+01	5.940594e+00	0.0	3.564356e+01	5.940594e+00	0.0	3.762376e+01	5.940594e+00	0.0	3.960396e+01	5.940594e+00	0.0	4.158416e+01	5.940594e+00	0.0	4.356436e+01	5.940594e+00	0.0	4.554455e+01	5.940594
[...]
POINT_DATA 10404

SCALARS Height double 1
LOOKUP_TABLE default
4.000000e+00	4.000000e+00	4.000000e+00	4.000000e+00	4.000000e+00	4.000000e+00	4.000000e+00	4.000000e+00	4.000000e+00	4.000000e+00	4.000000e+00	4.000000e+00	4.000000e+00	4.000000e+00	4.000000e+00	4.000000e+00	4.000000e+00	4.000000e+00	4.000000e+00	4.000000e+00	3.999999e+00	3.999994e+00	3.999974e+00	3.999889e+00	3.999524e+00	3.997963e+00	3.991222e+00	3.961714e+00	3.883853e+00	3.779308e+00	3.663872e+00	3.543514e+00	3.421452e+00	3.299939e+00	3.180246e+00	3.062884e+00	2.947876e+00	2.835099e+00	2.724469e+00	2.616021e+00	2.509796e+00	2.405752e+00	2.303740e+00	2.203615e+00	2.105239e+00	2.008057e+00	1.924471e+00	1.887592e+00	1.873301e+00	1.868033e+00	1.884554e+00	1.907577e+00	1.919228e+00	1.925241e+00	1.933253e+00	1.941340e+00	1.950226e+00	1.958830e+00	1.966251e+00	1.971534e+00	1.973626e+00	1.974241e+00	1.974023e+00	1.975480e+00	1.978352e+00	1.981980e+00	1.988444e+00	1.999809e+00	2.018702e+00	2.040112e+00	2.037487e+00	1.881332e+00	1.337313e+00	1.021625e+00	1.000599e+00	1.000015e+00	1.000000e+00	1.000000e+00	1.000000e+00	1.000000e+00	1.000000e+00	1.000000e+00	1.000000e+00	1.000000e+00	1.000000e+00	1.000000e+00	1.000000e+00	1.000000e+00	1.000000e+00	1.000000e+00	1.000000e+00	1.000000e+00	1.000000e+00	1.000000e+00	1.000000e+00	1.000000e+00	1.000000e+00	1.000000e+00	1.000000e+00	1.000000e+00	1.000000e+00	1.000000e+00	4.000000e+00	4.000000e+00	4.000000e+00	4.000000e+00	4.000000e+00	4.000000e+00	4.000000e+00	4.000000e+00	4.000000e+00	4.000000e+00	4.000000e+00	4.000000e+00	4.000000e+00	4.000000e+00	4.000000e+00	4.000000e+00	4.000000e+00	4.000000e+00	4.000000e+00	4.000000e+00	3.999999e+00	3.999998e+00	3.999990e+00	3.999954e+00	3.999800e+00	3.999079e+00	3.995201e+00	3.967299e+00	3.880834e+00	3.776570e+00	3.662737e+00	3.543919e+00	3.422734e+00	3.301822e+00	3.182737e+00	3.065976e+00	2.951438e+00	2.839058e+00	2.728901e+00	2.620893e+00	2.514996e+00	2.411242e+00	2.309507e+00	2.209569e+00	2.111332e+00	2.014348e+00	1.931126e+00	1.894184e+00	1.879475e+00	1.873897e+00	1.889585e+00	1.913138e+00	1.925238e+00	1.932391e+00	1.940830e+00	1.948028e+00	1.955815e+00	1.963611e+00	1.970898e+00	1.976683e+00	1.979767e+00	1.981799e+00	1.983777e+00	1.985791e+00	1.989877e+00	1.995819e+00	2.004204e+00	2.016320e+00	2.032340e+00	2.046522e+00	2.047294e+00	1.905829e+00	1.268055e+00	1.006231e+00	1.000072e+00	1.000001e+00	1.000000e+00	1.000000e+00	1.000000e+00	1.000000e+00	1.000000e+00	1.000000e+00	1.000000e+00	1.000000e+00	1.000000e+00	1.000000e+00	1.000000e+00	1.000000e+00	1.000000e+00	1.000000e+00	1.000000e+00	1.000000e+00	1.000000e+00	1.000000e+00	1.000000e+00	1.000000e+00	1.000000e+00	1.000000e+00	1.000000e+00	1.000000e+00	1.000000e+00	1.000000e+00	4.000000e+00	4.000000e+00	4.000000e+00	4.000000e+00	4.000000e+00	4.000000e+00	4.000000e+00	4.000000e+00	4.000000e+00	4.000000e+00	4.000000e+00	4.000000e+00	4.000000e+00	4.000000e+00	4.000000e+00	4.000000e+00	4.000000e+00	4.000000e+00	4.000000e+00	4.000000e+00	4.000000e+00	3.999999e+00	3.999996e+00	3.999980e+00	3.999906e+00	3.999489e+00	3.996475e+00	3.967962e+00	3.873045e+00	3.764673e+00	3.650032e+00	3.531848e+00	3.411075e+00	3.289682e+00	3.169854e+00	3.052070e+00	2.936734e+00	2.823868e+00	2.713205e+00	2.604902e+00	2.498865e+00	2.394883e+00	2.292967e+00	2.192895e+00	2.094443e+00	1.997071e+00	1.916174e+00	1.880918e+00	1.867023e+00	1.862380e+00	1.879050e+00	1.901218e+00	1.914952e+00	1.926650e+00	1.938038e+00	1.947216e+00	1.955666e+00	1.963465e+00	1.971199e+00	1.978338e+00	1.985209e+00	1.991169e+00	1.995480e+00	1.999255e+00	2.004621e+00	2.010152e+00	2.015256e+00	2.020966e+00	2.028419e+00	2.034932e+00	2.026822e+00	1.886971e+00	1.261592e+00	1.005733e+00	1.000053e+00	1.000000e+00	1.000000e+00	1.000000e+00	1.000000e+00	1.000000e+00	1.000000e+00	1.000000e+00	1.000000e+00	1.000000e+00	1.000000e+00	1.000000e+00	1.000000e+00	1.000000e+00	1.000000e+00	1.000000e+00	1.000000e+00	1.000000e+00	1.000000e+00	1.000000e+00	1.000000e+00	1.000000e+00	1.000000e+00	1.000000e+00	1.000000e+00	1.000000e+00	1.000000e+00	1.000000e+00	4.000000e+00	4.000000e+00	4.000000e+00	4.000000e+00	4.000000e+00	4.000000e+00	4.000000e+00	4.000000e+00	4.000000e+00	4.000000e+00	4.000000e+00	4.000000e+00	4.000000e+00	4.000000e+00	4.000000e+00	4.000000e+00	4.000000e+00	4.000000e+00	4.000000e+00	4.000000e+00	4.000000e+00	4.000000e+00	3.999999e+00	3.999992e+00	3.999954e+00	3.999664e+00	3.997002e+00	3.967437e+00	3.864637e+00	3.750046e+00	3.634672e+00	3.517409e+00	3.399822e+00	3.280794e+00	3.161596e+00	3.044486e+00	2.929828e+00	2.817642e+00	2.707861e+00	2.600229e+00	2.494882e+00	2.391527e+00	2.290035e+00	2.190393e+00	2.092308e+00	1.995188e+00	1.917175e+00	1.883382e+00	1.870019e+00	1.865962e+00	1.882834e+00	1.903003e+00	1.917114e+00	1.931051e+00	1.943597e+00	1.953115e+00	1.961337e+00	1.968918e+00	1.976278e+00	1.983615e+00	1.991795e+00	2.002816e+00	2.012678e+00	2.019876e+00	2.026696e+00	2.030577e+00	2.033653e+00	2.035005e+00	2.031349e+00	2.027726e+00	2.011028e+00	1.863012e+00	1.252786e+00	1.005653e+00	1.000053e+00	1.000000e+00	1.000000e+00	1.000000e+00	1.000000e+00	1.000000e+00	1.000000e+00	1.000000e+00	1.000000e+00	1.000000e+00	1.000000e+00	1.000000e+00	1.000000e+00	1.000000e+00	1.000000e+00	1.000000e+00	1.000000e+00	1.000000e+00	1.000000e+00	1.000000e+00	1.000000e+00	1.000000e+00	1.000000e+00	1.000000e+00	1.000000e+00	1.000000e+00	1.000000e+00	1.000000e+00	4.000000e+00	4.000000e+00	4.000000e+00	4.000000e+00	4.000000e+00	4.000000e+00	4.000000e+00	4.000000e+00	4.000000e+00	4.000000e+00	4.000000e+00	4.000000e+00	4.000000e+00	4.000000e+00	4.000000e+00	4.000000e+00	4.000000e+00	4.000000e+00	4.000000e+00	4.000000e+00	4.000000e+00	4.000000e+00	3.999999e+00	3.999996e+00	3.999970e+00	3.999711e+00	3.996839e+00	3.963501e+00	3.852816e+00	3.732311e+00	3.613739e+00	3.498028e+00	3.381606e+00	3.265727e+00	3.149078e+00	3.032976e+00	2.918823e+00	2.806951e+00	2.697723e+00	2.590599e+00	2.485572e+00	2.382705e+00	2.281555e+00	2.182130e+00	2.084199e+00	1.987105e+00	1.912837e+00	1.881374e+00	1.869107e+00	1.866565e+00	1.883807e+00	1.901328e+00	1.914463e+00	1.929087e+00	1.942616e+00	1.953357e+00	1.962471e+00	1.970848e+00	1.978868e+00	1.987056e+00	1.995916e+00	2.007133e+00	2.018665e+00	2.029851e+00	2.039371e+00	2.047148e+00	2.045087e+00	2.035652e+00	2.026461e+00	2.018333e+00	1.998048e+00	1.840145e+00	1.228151e+00	1.004833e+00	1.000044e+00	1.000000e+00	1.000000e+00	1.000000e+00	1.000000e+00	1.000000e+00	1.000000e+00	1.000000e+00	1.000000e+00	1.000000e+00	1.000000e+00	1.000000e+00	1.000000e+00	1.000000e+00	1.000000e+00	1.000000e+00	1.000000e+00	1.000000e+00	1.000000e+00	1.000000e+00	1.000000e+00	1.000000e+00	1.000000e+00	1.000000e+00	1.000000e+00	1.000000e+00	1.000000e+00	1.000000e+00	4.000000e+00	4.000000e+00	4.000000e+00	4.000000e+00	4.000000e+00	4.000000e+00	4.000000e+00	4.000000e+00	4.000000e+00	4.000000e+00	4.000000e+00	4.000000e+00	4.000000e+00	4.000000e+00	4.000000e+00	4.000000e+00	4.000000e+00	4.000000e+00	4.000000e+00	4.000000e+00	4.000000e+00	4.000000e+00	4.000000e+00	3.999997e+00	3.999967e+00	3.999647e+00	3.995983e+00	3.954255e+00	3.836253e+00	3.712206e+00	3.590476e+00	3.473007e+00	3.358941e+00	3.245035e+00	3.132205e+00	3.018857e+00	2.906047e+00	2.794850e+00	2.685909e+00	2.579415e+00	2.474852e+00	2.372387e+00	2.271745e+00	2.172654e+00	2.074847e+00	1.977813e+00	1.908095e+00	1.879437e+00	1.868237e+00	1.868615e+00	1.888346e+00	1.902084e+00	1.910448e+00	1.923392e+00	1.937150e+00	1.949241e+00	1.959758e+00	1.969702e+00	1.979695e+00	1.989424e+00	1.997788e+00	2.006785e+00	2.016218e+00	2.027086e+00	2.039791e+00	2.045689e+00	2.041295e+00	2.031852e+00	2.021704e+00	2.013266e+00	1.993255e+00	1.811789e+00	1.198053e+00	1.003680e+00	1.000031e+00	1.000000e+00	1.000000e+00	1.000000e+00	1.000000e+00	1.000000e+00	1.000000e+00	1.000000e+00	1.000000e+00	1.000000e+00	1.000000e+00	1.000000e+00	1.000000e+00	1.000000e+00	1.000000e+00	1.000000e+00	1.000000e+00	1.000000e+00	1.000000e+00	1.000000e+00	1.000000e+00	1.000000e+00	1.000000e+00	1.000000e+00	1.000000e+00	1.000000e+00	1.000000e+00	1.000000e+00	4.000000e+00	4.000000e+00	4.000000e+00	4.000000e+00	4.000000e+00	4.000000e+00	4.000000e+00	4.000000e+00	4.000000e+00	4.000000e+00	4.000000e+00	4.000000e+00	4.000000e+00	4.000000e+00	4.000000e+00	4.000000e+00	4.000000e+00	4.000000e+00	4.000000e+00	4.000000e+00	4.000000e+00	4.000000e+00	4.000000e+00	3.999996e+00	3.999955e+00	3.999488e+00	3.994030e+00	3.937420e+00	3.814392e+00	3.688833e+00	3.565147e+00	3.445975e+00	3.331668e+00	3.220612e+00	3.110084e+00	3.000655e+00	2.890849e+00	2.781200e+00	2.672879e+00	2.566878e+00	2.462953e+00	2.360910e+00	2.260813e+00	2.162240e+00	2.064694e+00	1.967914e+00	1.903404e+00	1.877671e+00	1.867586e+00	1.872150e+00	1.893911e+00	1.903959e+00	1.908301e+00	1.916945e+00	1.928306e+00	1.940771e+00	1.952643e+00	1.963813e+00	1.974827e+00	1.984101e+00	1.992490e+00	1.999144e+00	2.005752e+00	2.014173e+00	2.022374e+00	2.028292e+00	2.028680e+00	2.025009e+00	2.022110e+00	2.017676e+00	2.000210e+00	1.776136e+00	1.156314e+00	1.002245e+00	1.000018e+00	1.000000e+00	1.000000e+00	1.000000e+00	1.000000e+00	1.000000e+00	1.000000e+00	1.000000e+00	1.000000e+00	1.000000e+00	1.000000e+00	1.000000e+00	1.000000e+00	1.000000e+00	1.000000e+00	1.000000e+00	1.000000e+00	1.000000e+00	1.000000e+00	1.000000e+00	1.000000e+00	1.000000e+00	1.000000e+00	1.000000e+00	1.000000e+00	1.000000e+00	1.000000e+00	1.000000e+00	4.000000e+00	4.000000e+00	4.000000e+00	4.000000e+00	4.000000e+00	4.000000e+00	4.000000e+00	4.000000e+00	4.000000e+00	4.000000e+00	4.000000e+00	4.000000e+00	4.000000e+00	4.000000e+00	4.000000e+00	4.000000e+00	4.000000e+00	4.000000e+00	4.000000e+00	4.000000e+00	4.000000e+00	4.000000e+00	3.999999e+00	3.999994e+00	3.999926e+00	3.999135e+00	3.990208e+00	3.910575e+00	3.787080e+00	3.661691e+00	3.537805e+00	3.418038e+00	3.303027e+00	3.192320e+00	3.084384e+00	2.977052e+00	2.870763e+00	2.764720e+00	2.658398e+00	2.553058e+00	2.449819e+00	2.348436e+00	2.248884e+00	2.150960e+00	2.054084e+00	1.958018e+00	1.899490e+00	1.876592e+00	1.867679e+00	1.877766e+00	1.899917e+00	1.907551e+00	1.909763e+00	1.915513e+00	1.922760e+00	1.931686e+00	1.942912e+00	1.954373e+00	1.964150e+00	1.973295e+00	1.980893e+00	1.984691e+00	1.988548e+00	1.993239e+00	2.000297e+00	2.005082e+00	2.008660e+00	2.018232e+00	2.025838e+00	2.031935e+00	2.017206e+00	1.723415e+00	1.109159e+00	1.001154e+00	1.000010e+00	1.000000e+00	1.000000e+00	1.000000e+00	1.000000e+00	1.000000e+00	1.000000e+00	1.000000e+00	1.000000e+00	1.000000e+00	1.000000e+00	1.000000e+00	1.000000e+00	1.000000e+00	1.000000e+00	1.000000e+00	1.000000e+00	1.000000e+00	1.000000e+00	1.000000e+00	1.000000e+00	1.000000e+00	1.000000e+00	1.000000e+00	1.000000e+00	1.000000e+00	1.000000e+00	1.000000e+00	4.000000e+00	4.000000e+00	4.000000e+00	4.000000e+00	4.000000e+00	4.000000e+00	4.000000e+00	4.000000e+00	4.000000e+00	4.000000e+00	4.000000e+00	4.000000e+00	4.000000e+00	4.000000e+00	4.000000e+00	4.000000e+00	4.000000e+00	4.000000e+00	4.000000e+00	4.000000e+00	4.000000e+00	4.000000e+00	3.999999e+00	3.999988e+00	3.999863e+00	3.998400e+00	3.979448e+00	3.877280e+00	3.753711e+00	3.630400e+00	3.508193e+00	3.389065e+00	3.273941e+00	3.162337e+00	3.055091e+00	2.949886e+00	2.845280e+00	2.742299e+00	2.640220e+00	2.537380e+00	2.435083e+00	2.334652e+00	2.235863e+00	2.138764e+00	2.043058e+00	1.948587e+00	1.896973e+00	1.877041e+00	1.869640e+00	1.884183e+00	1.906083e+00	1.912630e+00	1.913939e+00	1.918702e+00	1.924760e+00	1.931649e+00	1.939442e+00	1.948020e+00	1.956366e+00	1.963913e+00	1.969466e+00	1.973775e+00	1.977081e+00	1.978674e+00	1.984173e+00	1.988749e+00	1.994100e+00	2.008664e+00	2.033341e+00	2.047310e+00	2.026739e+00	1.649915e+00	1.062815e+00	1.000509e+00	1.000005e+00	1.000000e+00	1.000000e+00	1.000000e+00	1.000000e+00	1.000000e+00	1.000000e+00	1.000000e+00	1.000000e+00	1.000000e+00	1.000000e+00	1.000000e+00	1.000000e+00	1.000000e+00	1.000000e+00	1.000000e+00	1.000000e+00	1.000000e+00	1.000000e+00	1.000000e+00	1.000000e+00	1.000000e+00	1.000000e+00	1.000000e+00	1.000000e+00	1.000000e+00	1.000000e+00	1.000000e+00	4.000000e+00	4.000000e+00	4.000000e+00	4.000000e+00	4.000000e+00	4.000000e+00	4.000000e+00	4.000000e+00	4.000000e+00	4.000000e+00	4.000000e+00	4.000000e+00	4.000000e+00	4.000000e+00	4.000000e+00	4.000000e+00	4.000000e+00	4.000000e+00	4.000000e+00	4.000000e+00	4.000000e+00	4.000000e+00	3.999998e+00	3.999977e+00	3.999725e+00	3.996594e+00	3.957754e+00	3.839591e+00	3.715618e+00	3.594056e+00	3.475391e+00	3.358558e+00	3.244263e+00	3.132280e+00	3.023613e+00	2.918751e+00	2.816311e+00	2.714821e+00	2.614844e+00	2.516226e+00	2.417582e+00	2.318849e+00	2.221271e+00	2.125349e+00	2.030981e+00	1.939971e+00	1.895050e+00	1.878527e+00	1.873004e+00	1.890992e+00	1.913311e+00	1.920383e+00	1.923690e+00	1.929682e+00	1.935616e+00	1.941385e+00	1.947395e+00	1.952027e+00	1.956743e+00	1.962648e+00	1.969646e+00	1.975701e+00	1.979644e+00	1.979943e+00	1.981589e+00	1.985131e+00	1.995006e+00	2.018614e+00	2.044038e+00	2.055962e+00	2.018556e+00	1.558234e+00	1.026780e+00	1.000283e+00	1.000002e+00	1.000000e+00	1.000000e+00	1.000000e+00	1.000000e+00	1.000000e+00	1.000000e+00	1.000000e+00	1.000000e+00	1.000000e+00	1.000000e+00	1.000000e+00	1.000000e+00	1.000000e+00	1.000000e+00	1.000000e+00	1.000000e+00	1.000000e+00	1.000000e+00	1.000000e+00	1.000000e+00	1.000000e+00	1.000000e+00	1.000000e+00	1.000000e+00	1.000000e+00	1.000000e+00	1.000000e+00	4.000000e+00	4.000000e+00	4.000000e+00	4.000000e+00	4.000000e+00	4.000000e+00	4.000000e+00	4.000000e+00	4.000000e+00	4.000000e+00	4.000000e+00	4.000000e+00	4.000000e+00	4.000000e+00	4.000000e+00	4.000000e+00	4.000000e+00	4.000000e+00	4.000000e+00	4.000000e+00	4.000000e+00	4.000000e+00	3.999996e+00	3.999949e+00	3.999369e+00	3.992274e+00	3.920298e+00	3.797246e+00	3.673459e+00	3.553469e+00	3.437982e+00	3.324799e+00	3.213087e+00	3.102308e+00	2.993364e+00	2.887342e+00	2.784425e+00	2.684351e+00	2.585713e+00	2.488469e+00	2.392691e+00	2.297977e+00	2.203460e+00	2.109587e+00	2.016834e+00	1.932069e+00	1.893374e+00	1.880397e+00	1.877645e+00	1.899199e+00	1.923462e+00	1.933993e+00	1.939465e+00	1.945963e+00	1.951236e+00	1.955897e+00	1.961409e+00	1.966183e+00	1.970532e+00	1.974738e+00	1.979931e+00	1.982873e+00	1.986831e+00	1.990187e+00	1.993943e+00	2.001906e+00	2.016473e+00	2.032506e+00	2.049631e+00	2.056200e+00	1.986139e+00	1.442791e+00	1.013896e+00	1.000152e+00	1.000001e+00	1.000000e+00	1.000000e+00	1.000000e+00	1.000000e+00	1.000000e+00	1.000000e+00	1.000000e+00	1.000000e+00	1.000000e+00	1.000000e+00	1.000000e+00	1.000000e+00	1.000000e+00	1.000000e+00	1.000000e+00	1.000000e+00	1.000000e+00	1.000000e+00	1.000000e+00	1.000000e+00	1.000000e+00	1.000000e+00	1.000000e+00	1.000000e+00	1.000000e+00	1.000000e+00	1.000000e+00	4.000000e+00	4.000000e+00	4.000000e+00	4.000000e+00	4.000000e+00	4.000000e+00	4.000000e+00	4.000000e+00	4.000000e+00	4.000000e+00	4.000000e+00	4.000000e+00	4.000000e+00	4.000000e+00	4.000000e+00	4.000000e+00	4.000000e+00	4.000000e+00	4.000000e+00	4.000000e+00	4.000000e+00	3.999999e+00	3.999990e+00	3.999875e+00	3.998447e+00	3.978824e+00	3.873271e+00	3.748813e+00	3.627233e+00	3.509411e+00	3.396811e+00	3.286848e+00	3.178635e+00	3.070257e+00	2.962638e+00	2.856299e+00	2.752952e+00	2.652579e+00	2.554639e+00	2.458440e+00	2.363860e+00	2.270874e+00	2.179490e+00	2.089385e+00	1.999430e+00	1.924282e+00	1.892518e+00	1.882934e+00	1.884800e+00	1.909893e+00	1.935969e+00	1.949837e+00	1.956787e+00	1.963369e+00	1.968069e+00	1.971781e+00	1.976590e+00	1.980137e+00	1.984209e+00	1.987562e+00	1.990375e+00	1.995089e+00	1.999880e+00	2.005633e+00	2.012422e+00	2.022349e+00	2.032482e+00	2.040948e+00	2.049170e+00	2.047414e+00	1.932880e+00	1.325448e+00	1.008044e+00	1.000078e+00	1.000001e+00	1.000000e+00	1.000000e+00	1.000000e+00	1.000000e+00	1.000000e+00	1.000000e+00	1.000000e+00	1.000000e+00	1.000000e+00	1.000000e+00	1.000000e+00	1.000000e+00	1.000000e+00	1.000000e+00	1.000000e+00	1.000000e+00	1.000000e+00	1.000000e+00	1.000000e+00	1.000000e+00	1.000000e+00	1.000000e+00	1.000000e+00	1.000000e+00	1.000000e+00	1.000000e+00	1.000000e+00	4.000000e+00	4.000000e+00	4.000000e+00	4.000000e+00	4.000000e+00	4.000000e+00	4.000000e+00	4.000000e+00	4.000000e+00	4.000000e+00	4.000000e+00	4.000000e+00	4.000000e+00	4.000000e+00	4.000000e+00	4.000000e+00	4.000000e+00	4.000000e+00	4.000000e+00	4.000000e+00	4.000000e+00	3.999998e+00	3.999973e+00	3.999660e+00	3.995560e+00	3.945865e+00	3.822248e+00	3.696148e+00	3.576713e+00	3.462387e+00	3.352516e+00	3.245409e+00	3.139957e+00	3.035335e+00	2.930152e+00	2.825410e+00	2.721845e+00	2.620760e+00	2.522782e+00	2.427201e+00	2.333424e+00	2.241639e+00	2.151924e+00	2.064758e+00	1.978713e+00	1.916215e+00	1.892379e+00	1.886650e+00	1.895949e+00	1.921138e+00	1.946900e+00	1.963307e+00	1.972395e+00	1.979175e+00	1.984267e+00	1.987660e+00	1.991483e+00	1.993588e+00	1.996967e+00	1.999991e+00	2.002183e+00	2.007675e+00	2.013557e+00	2.019718e+00	2.027496e+00	2.036743e+00	2.042282e+00	2.043838e+00	2.043336e+00	2.031784e+00	1.862460e+00	1.218175e+00	1.004156e+00	1.000035e+00	1.000000e+00	1.000000e+00	1.000000e+00	1.000000e+00	1.000000e+00	1.000000e+00	1.000000e+00	1.000000e+00	1.000000e+00	1.000000e+00	1.000000e+00	1.000000e+00	1.000000e+00	1.000000e+00	1.000000e+00	1.000000e+00	1.000000e+00	1.000000e+00	1.000000e+00	1.000000e+00	1.000000e+00	1.000000e+00	1.000000e+00	1.000000e+00	1.000000e+00	1.000000e+00	1.000000e+00	1.000000e+00	4.000000e+00	4.000000e+00	4.000000e+00	4.000000e+00	4.000000e+00	4.000000e+00	4.000000e+00	4.000000e+00	4.000000e+00	4.000000e+00	4.000000e+00	4.000000e+00	4.000000e+00	4.000000e+00	4.000000e+00	4.000000e+00	4.000000e+00	4.000000e+00	4.000000e+00	4.000000e+00	4.000000e+00	3.999994e+00	3.999921e+00	3.998984e+00	3.986765e+00	3.889909e+00	3.763150e+00	3.639759e+00	3.523583e+00	3.412967e+00	3.305875e+00	3.200980e+00	3.097773e+00	2.996215e+00	2.894210e+00	2.792616e+00	2.690944e+00	2.590391e+00	2.491714e+00	2.395796e+00	2.302421e+00	2.211227e+00	2.122596e+00	2.037334e+00	1.956741e+00	1.908259e+00	1.893293e+00	1.891376e+00	1.904948e+00	1.927961e+00	1.952542e+00	1.971637e+00	1.983341e+00	1.991364e+00	1.997653e+00	2.001850e+00	2.005117e+00	2.007763e+00	2.010092e+00	2.012578e+00	2.014864e+00	2.018957e+00	2.026476e+00	2.033215e+00	2.040158e+00	2.041746e+00	2.038873e+00	2.037123e+00	2.034664e+00	2.015075e+00	1.760800e+00	1.136491e+00	1.001738e+00	1.000014e+00	1.000000e+00	1.000000e+00	1.000000e+00	1.000000e+00	1.000000e+00	1.000000e+00	1.000000e+00	1.000000e+00	1.000000e+00	1.000000e+00	1.000000e+00	1.000000e+00	1.000000e+00	1.000000e+00	1.000000e+00	1.000000e+00	1.000000e+00	1.000000e+00	1.000000e+00	1.000000e+00	1.000000e+00	1.000000e+00	1.000000e+00	1.000000e+00	1.000000e+00	1.000000e+00	1.000000e+00	1.000000e+00	4.000000e+00	4.000000e+00	4.000000e+00	4.000000e+00	4.000000e+00	4.000000e+00	4.000000e+00	4.000000e+00	4.000000e+00	4.000000e+00	4.000000e+00	4.000000e+00	4.000000e+00	4.000000e+00	4.000000e+00	4.000000e+00	4.000000e+00	4.000000e+00	4.000000e+00	4.000000e+00	3.999999e+00	3.999980e+00	3.999744e+00	3.996561e+00	3.953940e+00	3.826939e+00	3.698587e+00	3.579710e+00	3.468580e+00	3.361706e+00	3.257176e+00	3.154233e+00	3.052850e+00	2.953055e+00	2.855033e+00	2.755833e+00	2.657758e+00	2.559522e+00	2.462071e+00	2.366407e+00	2.272894e+00	2.181769e+00	2.093831e+00	2.009291e+00	1.939060e+00	1.904387e+00	1.894442e+00	1.894800e+00	1.907747e+00	1.926220e+00	1.947806e+00	1.968384e+00	1.983561e+00	1.995470e+00	2.005971e+00	2.012958e+00	2.017177e+00	2.021375e+00	2.022971e+00	2.024097e+00	2.025826e+00	2.028852e+00	2.033775e+00	2.036233e+00	2.035787e+00	2.034381e+00	2.032474e+00	2.031316e+00	2.027758e+00	1.995985e+00	1.640893e+00	1.067528e+00	1.000564e+00	1.000006e+00	1.000000e+00	1.000000e+00	1.000000e+00	1.000000e+00	1.000000e+00	1.000000e+00	1.000000e+00	1.000000e+00	1.000000e+00	1.000000e+00	1.000000e+00	1.000000e+00	1.000000e+00	1.000000e+00	1.000000e+00	1.000000e+00	1.000000e+00	1.000000e+00	1.000000e+00	1.000000e+00	1.000000e+00	1.000000e+00	1.000000e+00	1.000000e+00	1.000000e+00	1.000000e+00	1.000000e+00	1.000000e+00	4.000000e+00	4.000000e+00	4.000000e+00	4.000000