# vtk DataFile Version 3.0
vtk output
ASCII
DATASET STRUCTURED_GRID
DIMENSIONS 102 102 1
POINTS 10404 double
0.000000e+00	0.000000e+00	0.0	1.980198e+00	0.000000e+00	0.0	3.960396e+00	0.000000e+00	0.0	5.940594e+00	0.000000e+00	0.0	7.920792e+00	0.000000e+00	0.0	9.900990e+00	0.000000e+00	0.0	1.188119e+01	0.000000e+00	0.0	1.386139e+01	0.000000e+00	0.0	1.584158e+01	0.000000e+00	0.0	1.782178e+01	0.000000e+00	0.0	1.980198e+01	0.000000e+00	0.0	2.178218e+01	0.000000e+00	0.0	2.376238e+01	0.000000e+00	0.0	2.574257e+01	0.000000e+00	0.0	2.772277e+01	0.000000e+00	0.0	2.970297e+01	0.000000e+00	0.0	3.168317e+01	0.000000e+00	0.0	3.366337e+01	0.000000e+00	0.0	3.564356e+01	0.000000e+00	0.0	3.762376e+01	0.000000e+00	0.0	3.960396e+01	0.000000e+00	0.0	4.158416e+01	0.000000e+00	0.0	4.356436e+01	0.000000e+00	0.0	4.554455e+01	0.000000e+00	0.0	4.752475e+01	0.000000e+00	0.0	4.950495e+01	0.000000e+00	0.0	5.148515e+01	0.000000e+00	0.0	5.346535e+01	0.000000e+00	0.0	5.544554e+01	0.000000e+00	0.0	5.742574e+01	0.000000e+00	0.0	5.940594e+01	0.000000e+00	0.0	6.138614e+01	0.000000e+00	0.0	6.336634e+01	0.000000e+00	0.0	6.534653e+01	0.000000e+00	0.0	6.732673e+01	0.000000e+00	0.0	6.930693e+01	0.000000e+00	0.0	7.128713e+01	0.000000e+00	0.0	7.326733e+01	0.000000e+00	0.0	7.524752e+01	0.000000e+00	0.0	7.722772e+01	0.000000e+00	0.0	7.920792e+01	0.000000e+00	0.0	8.118812e+01	0.000000e+00	0.0	8.316832e+01	0.000000e+00	0.0	8.514851e+01	0.000000e+00	0.0	8.712871e+01	0.000000e+00	0.0	8.910891e+01	0.000000e+00	0.0	9.108911e+01	0.000000e+00	0.0	9.306931e+01	0.000000e+00	0.0	9.504950e+01	0.000000e+00	0.0	9.702970e+01	0.000000e+00	0.0	9.900990e+01	0.000000e+00	0.0	1.009901e+02	0.000000e+00	0.0	1.029703e+02	0.000000e+00	0.0	1.049505e+02	0.000000e+00	0.0	1.069307e+02	0.000000e+00	0.0	1.089109e+02	0.000000e+00	0.0	1.108911e+02	0.000000e+00	0.0	1.128713e+02	0.000000e+00	0.0	1.148515e+02	0.000000e+00	0.0	1.168317e+02	0.000000e+00	0.0	1.188119e+02	0.000000e+00	0.0	1.207921e+02	0.000000e+00	0.0	1.227723e+02	0.000000e+00	0.0	1.247525e+02	0.000000e+00	0.0	1.267327e+02	0.000000e+00	0.0	1.287129e+02	0.000000e+00	0.0	1.306931e+02	0.000000e+00	0.0	1.326733e+02	0.000000e+00	0.0	1.346535e+02	0.000000e+00	0.0	1.366337e+02	0.000000e+00	0.0	1.386139e+02	0.000000e+00	0.0	1.405941e+02	0.000000e+00	0.0	1.425743e+02	0.000000e+00	0.0	1.445545e+02	0.000000e+00	0.0	1.465347e+02	0.000000e+00	0.0	1.485149e+02	0.000000e+00	0.0	1.504950e+02	0.000000e+00	0.0	1.524752e+02	0.000000e+00	0.0	1.544554e+02	0.000000e+00	0.0	1.564356e+02	0.000000e+00	0.0	1.584158e+02	0.000000e+00	0.0	1.603960e+02	0.000000e+00	0.0	1.623762e+02	0.000000e+00	0.0	1.643564e+02	0.000000e+00	0.0	1.663366e+02	0.000000e+00	0.0	1.683168e+02	0.000000e+00	0.0	1.702970e+02	0.000000e+00	0.0	1.722772e+02	0.000000e+00	0.0	1.742574e+02	0.000000e+00	0.0	1.762376e+02	0.000000e+00	0.0	1.782178e+02	0.000000e+00	0.0	1.801980e+02	0.000000e+00	0.0	1.821782e+02	0.000000e+00	0.0	1.841584e+02	0.000000e+00	0.0	1.861386e+02	0.000000e+00	0.0	1.881188e+02	0.000000e+00	0.0	1.900990e+02	0.000000e+00	0.0	1.920792e+02	0.000000e+00	0.0	1.940594e+02	0.000000e+00	0.0	1.960396e+02	0.000000e+00	0.0	1.980198e+02	0.000000e+00	0.0	2.000000e+02	0.000000e+00	0.0	0.000000e+00	1.980198e+00	0.0	1.980198e+00	1.980198e+00	0.0	3.960396e+00	1.980198e+00	0.0	5.940594e+00	1.980198e+00	0.0	7.920792e+00	1.980198e+00	0.0	9.900990e+00	1.980198e+00	0.0	1.188119e+01	1.980198e+00	0.0	1.386139e+01	1.980198e+00	0.0	1.584158e+01	1.980198e+00	0.0	1.782178e+01	1.980198e+00	0.0	1.980198e+01	1.980198e+00	0.0	2.178218e+01	1.980198e+00	0.0	2.376238e+01	1.980198e+00	0.0	2.574257e+01	1.980198e+00	0.0	2.772277e+01	1.980198e+00	0.0	2.970297e+01	1.980198e+00	0.0	3.168317e+01	1.980198e+00	0.0	3.366337e+01	1.980198e+00	0.0	3.564356e+01	1.980198e+00	0.0	3.762376e+01	1.980198e+00	0.0	3.960396e+01	1.980198e+00	0.0	4.158416e+01	1.980198e+00	0.0	4.356436e+01	1.980198e+00	0.0	4.554455e+01	1.980198e+00	0.0	4.752475e+01	1.980198e+00	0.0	4.950495e+01	1.980198e+00	0.0	5.148515e+01	1.980198e+00	0.0	5.346535e+01	1.980198e+00	0.0	5.544554e+01	1.980198e+00	0.0	5.742574e+01	1.980198e+00	0.0	5.940594e+01	1.980198e+00	0.0	6.138614e+01	1.980198e+00	0.0	6.336634e+01	1.980198e+00	0.0	6.534653e+01	1.980198e+00	0.0	6.732673e+01	1.980198e+00	0.0	6.930693e+01	1.980198e+00	0.0	7.128713e+01	1.980198e+00	0.0	7.326733e+01	1.980198e+00	0.0	7.524752e+01	1.980198e+00	0.0	7.722772e+01	1.980198e+00	0.0	7.920792e+01	1.980198e+00	0.0	8.118812e+01	1.980198e+00	0.0	8.316832e+01	1.980198e+00	0.0	8.514851e+01	1.980198e+00	0.0	8.712871e+01	1.980198e+00	0.0	8.910891e+01	1.980198e+00	0.0	9.108911e+01	1.980198e+00	0.0	9.306931e+01	1.980198e+00	0.0	9.504950e+01	1.980198e+00	0.0	9.702970e+01	1.980198e+00	0.0	9.900990e+01	1.980198e+00	0.0	1.009901e+02	1.980198e+00	0.0	1.029703e+02	1.980198e+00	0.0	1.049505e+02	1.980198e+00	0.0	1.069307e+02	1.980198e+00	0.0	1.089109e+02	1.980198e+00	0.0	1.108911e+02	1.980198e+00	0.0	1.128713e+02	1.980198e+00	0.0	1.148515e+02	1.980198e+00	0.0	1.168317e+02	1.980198e+00	0.0	1.188119e+02	1.980198e+00	0.0	1.207921e+02	1.980198e+00	0.0	1.227723e+02	1.980198e+00	0.0	1.247525e+02	1.980198e+00	0.0	1.267327e+02	1.980198e+00	0.0	1.287129e+02	1.980198e+00	0.0	1.306931e+02	1.980198e+00	0.0	1.326733e+02	1.980198e+00	0.0	1.346535e+02	1.980198e+00	0.0	1.366337e+02	1.980198e+00	0.0	1.386139e+02	1.980198e+00	0.0	1.405941e+02	1.980198e+00	0.0	1.425743e+02	1.980198e+00	0.0	1.445545e+02	1.980198e+00	0.0	1.465347e+02	1.980198e+00	0.0	1.485149e+02	1.980198e+00	0.0	1.504950e+02	1.980198e+00	0.0	1.524752e+02	1.980198e+00	0.0	1.544554e+02	1.980198e+00	0.0	1.564356e+02	1.980198e+00	0.0	1.584158e+02	1.980198e+00	0.0	1.603960e+02	1.980198e+00	0.0	1.623762e+02	1.980198e+00	0.0	1.643564e+02	1.980198e+00	0.0	1.663366e+02	1.980198e+00	0.0	1.683168e+02	1.980198e+00	0.0	1.702970e+02	1.980198e+00	0.0	1.722772e+02	1.980198e+00	0.0	1.742574e+02	1.980198e+00	0.0	1.762376e+02	1.980198e+00	0.0	1.782178e+02	1.980198e+00	0.0	1.801980e+02	1.980198e+00	0.0	1.821782e+02	1.980198e+00	0.0	1.841584e+02	1.980198e+00	0.0	1.861386e+02	1.980198e+00	0.0	1.881188e+02	1.980198e+00	0.0	1.900990e+02	1.980198e+00	0.0	1.920792e+02	1.980198e+00	0.0	1.940594e+02	1.980198e+00	0.0	1.960396e+02	1.980198e+00	0.0	1.980198e+02	1.980198e+00	0.0	2.000000e+02	1.980198e+00	0.0	0.000000e+00	3.960396e+00	0.0	1.980198e+00	3.960396e+00	0.0	3.960396e+00	3.960396e+00	0.0	5.940594e+00	3.960396e+00	0.0	7.920792e+00	3.960396e+00	0.0	9.900990e+00	3.960396e+00	0.0	1.188119e+01	3.960396e+00	0.0	1.386139e+01	3.960396e+00	0.0	1.584158e+01	3.960396e+00	0.0	1.782178e+01	3.960396e+00	0.0	1.980198e+01	3.960396e+00	0.0	2.178218e+01	3.960396e+00	0.0	2.376238e+01	3.960396e+00	0.0	2.574257e+01	3.960396e+00	0.0	2.772277e+01	3.960396e+00	0.0	2.970297e+01	3.960396e+00	0.0	3.168317e+01	3.960396e+00	0.0	3.366337e+01	3.960396e+00	0.0	3.564356e+01	3.960396e+00	0.0	3.762376e+01	3.960396e+00	0.0	3.960396e+01	3.960396e+00	0.0	4.158416e+01	3.960396e+00	0.0	4.356436e+01	3.960396e+00	0.0	4.554455e+01	3.960396e+00	0.0	4.752475e+01	3.960396e+00	0.0	4.950495e+01	3.960396e+00	0.0	5.148515e+01	3.960396e+00	0.0	5.346535e+01	3.960396e+00	0.0	5.544554e+01	3.960396e+00	0.0	5.742574e+01	3.960396e+00	0.0	5.940594e+01	3.960396e+00	0.0	6.138614e+01	3.960396e+00	0.0	6.336634e+01	3.960396e+00	0.0	6.534653e+01	3.960396e+00	0.0	6.732673e+01	3.960396e+00	0.0	6.930693e+01	3.960396e+00	0.0	7.128713e+01	3.960396e+00	0.0	7.326733e+01	3.960396e+00	0.0	7.524752e+01	3.960396e+00	0.0	7.722772e+01	3.960396e+00	0.0	7.920792e+01	3.960396e+00	0.0	8.118812e+01	3.960396e+00	0.0	8.316832e+01	3.960396e+00	0.0	8.514851e+01	3.960396e+00	0.0	8.712871e+01	3.960396e+00	0.0	8.910891e+01	3.960396e+00	0.0	9.108911e+01	3.960396e+00	0.0	9.306931e+01	3.960396e+00	0.0	9.504950e+01	3.960396e+00	0.0	9.702970e+01	3.960396e+00	0.0	9.900990e+01	3.960396e+00	0.0	1.009901e+02	3.960396e+00	0.0	1.029703e+02	3.960396e+00	0.0	1.049505e+02	3.960396e+00	0.0	1.069307e+02	3.960396e+00	0.0	1.089109e+02	3.960396e+00	0.0	1.108911e+02	3.960396e+00	0.0	1.128713e+02	3.960396e+00	0.0	1.148515e+02	3.960396e+00	0.0	1.168317e+02	3.960396e+00	0.0	1.188119e+02	3.960396e+00	0.0	1.207921e+02	3.960396e+00	0.0	1.227723e+02	3.960396e+00	0.0	1.247525e+02	3.960396e+00	0.0	1.267327e+02	3.960396e+00	0.0	1.287129e+02	3.960396e+00	0.0	1.306931e+02	3.960396e+00	0.0	1.326733e+02	3.960396e+00	0.0	1.346535e+02	3.960396e+00	0.0	1.366337e+02	3.960396e+00	0.0	1.386139e+02	3.960396e+00	0.0	1.405941e+02	3.960396e+00	0.0	1.425743e+02	3.960396e+00	0.0	1.445545e+02	3.960396e+00	0.0	1.465347e+02	3.960396e+00	0.0	1.485149e+02	3.960396e+00	0.0	1.504950e+02	3.960396e+00	0.0	1.524752e+02	3.960396e+00	0.0	1.544554e+02	3.960396e+00	0.0	1.564356e+02	3.960396e+00	0.0	1.584158e+02	3.960396e+00	0.0	1.603960e+02	3.960396e+00	0.0	1.623762e+02	3.960396e+00	0.0	1.643564e+02	3.960396e+00	0.0	1.663366e+02	3.960396e+00	0.0	1.683168e+02	3.960396e+00	0.0	1.702970e+02	3.960396e+00	0.0	1.722772e+02	3.960396e+00	0.0	1.742574e+02	3.960396e+00	0.0	1.762376e+02	3.960396e+00	0.0	1.782178e+02	3.960396e+00	0.0	1.801980e+02	3.960396e+00	0.0	1.821782e+02	3.960396e+00	0.0	1.841584e+02	3.960396e+00	0.0	1.861386e+02	3.960396e+00	0.0	1.881188e+02	3.960396e+00	0.0	1.900990e+02	3.960396e+00	0.0	1.920792e+02	3.960396e+00	0.0	1.940594e+02	3.960396e+00	0.0	1.960396e+02	3.960396e+00	0.0	1.980198e+02	3.960396e+00	0.0	2.000000e+02	3.960396e+00	0.0	0.000000e+00	5.940594e+00	0.0	1.980198e+00	5.940594e+00	0.0	3.960396e+00	5.940594e+00	0.0	5.940594e+00	5.940594e+00	0.0	7.920792e+00	5.940594e+00	0.0	9.900990e+00	5.940594e+00	0.0	1.188119e+01	5.940594e+00	0.0	1.386139e+01	5.940594e+00	0.0	1.584158e+01	5.940594e+00	0.0	1.782178e+01	5.940594e+00	0.0	1.980198e+01	5.940594e+00	0.0	2.178218e+01	5.940594e+00	0.0	2.376238e+01	5.940594e+00	0.0	2.574257e+01	5.940594e+00	0.0	2.772277e+01	5.940594e+00	0.0	2.970297e+01	5.940594e+00	0.0	3.168317e+01	5.940594e+00	0.0	3.366337e+01	5.940594e+00	0.0	3.564356e+01	5.940594e+00	0.0	3.762376e+01	5.940594e+00	0.0	3.960396e+01	5.940594e+00	0.0	4.158416e+01	5.940594e+00	0.0	4.356436e+01	5.940594e+00	0.0	4.554455e+01	5.940594
[...]
POINT_DATA 10404

SCALARS Height double 1
LOOKUP_TABLE default
4.000000e+00	4.000000e+00	4.000000e+00	4.000000e+00	4.000000e+00	4.000000e+00	3.999998e+00	3.999992e+00	3.999965e+00	3.999848e+00	3.999335e+00	3.997072e+00	3.987192e+00	3.947858e+00	3.876528e+00	3.791462e+00	3.700724e+00	3.607527e+00	3.513539e+00	3.420804e+00	3.330352e+00	3.242811e+00	3.158228e+00	3.076375e+00	2.996963e+00	2.919725e+00	2.844416e+00	2.770840e+00	2.698854e+00	2.628349e+00	2.559237e+00	2.491455e+00	2.424952e+00	2.359686e+00	2.295598e+00	2.232633e+00	2.170780e+00	2.110016e+00	2.050310e+00	1.991624e+00	1.933885e+00	1.877069e+00	1.821021e+00	1.765662e+00	1.709570e+00	1.669268e+00	1.653107e+00	1.646897e+00	1.649433e+00	1.677894e+00	1.707059e+00	1.725032e+00	1.738539e+00	1.753183e+00	1.766304e+00	1.778584e+00	1.791066e+00	1.802731e+00	1.813425e+00	1.822955e+00	1.831233e+00	1.838363e+00	1.844842e+00	1.851081e+00	1.856880e+00	1.862485e+00	1.868027e+00	1.873976e+00	1.879486e+00	1.885236e+00	1.891356e+00	1.897281e+00	1.902438e+00	1.905556e+00	1.907635e+00	1.909204e+00	1.914041e+00	1.921539e+00	1.934286e+00	1.948728e+00	1.961612e+00	1.972584e+00	1.977465e+00	1.936750e+00	1.646271e+00	1.148400e+00	1.005860e+00	1.000165e+00	1.000005e+00	1.000000e+00	1.000000e+00	1.000000e+00	1.000000e+00	1.000000e+00	1.000000e+00	1.000000e+00	1.000000e+00	1.000000e+00	1.000000e+00	1.000000e+00	1.000000e+00	1.000000e+00	4.000000e+00	4.000000e+00	4.000000e+00	4.000000e+00	4.000000e+00	4.000000e+00	3.999999e+00	3.999997e+00	3.999986e+00	3.999939e+00	3.999720e+00	3.998609e+00	3.991866e+00	3.948639e+00	3.874147e+00	3.790267e+00	3.701157e+00	3.608603e+00	3.515364e+00	3.423529e+00	3.334052e+00	3.247352e+00	3.163417e+00	3.082040e+00	3.002979e+00	2.925997e+00	2.850877e+00	2.777445e+00	2.705576e+00	2.635169e+00	2.566142e+00	2.498429e+00	2.431979e+00	2.366751e+00	2.302672e+00	2.239736e+00	2.177916e+00	2.117166e+00	2.057448e+00	1.998739e+00	1.940964e+00	1.884121e+00	1.828032e+00	1.772615e+00	1.716472e+00	1.676220e+00	1.660076e+00	1.653726e+00	1.656027e+00	1.684299e+00	1.713268e+00	1.730906e+00	1.744148e+00	1.758766e+00	1.771900e+00	1.784040e+00	1.796155e+00	1.807282e+00	1.817467e+00	1.826867e+00	1.835437e+00	1.842727e+00	1.849269e+00	1.855468e+00	1.861194e+00	1.866942e+00	1.872982e+00	1.879235e+00	1.885304e+00	1.891402e+00	1.897293e+00	1.903353e+00	1.908349e+00	1.911619e+00	1.914508e+00	1.917598e+00	1.923296e+00	1.930836e+00	1.940875e+00	1.955315e+00	1.966810e+00	1.975374e+00	1.980558e+00	1.952638e+00	1.646065e+00	1.094445e+00	1.001211e+00	1.000018e+00	1.000000e+00	1.000000e+00	1.000000e+00	1.000000e+00	1.000000e+00	1.000000e+00	1.000000e+00	1.000000e+00	1.000000e+00	1.000000e+00	1.000000e+00	1.000000e+00	1.000000e+00	1.000000e+00	4.000000e+00	4.000000e+00	4.000000e+00	4.000000e+00	4.000000e+00	4.000000e+00	4.000000e+00	3.999999e+00	3.999994e+00	3.999973e+00	3.999861e+00	3.999111e+00	3.992980e+00	3.944414e+00	3.863024e+00	3.776913e+00	3.686518e+00	3.593608e+00	3.499120e+00	3.406506e+00	3.317232e+00	3.230998e+00	3.147441e+00	3.066321e+00	2.987416e+00	2.910508e+00	2.835395e+00	2.761941e+00	2.690055e+00	2.619653e+00	2.550661e+00	2.482998e+00	2.416599e+00	2.351427e+00	2.287509e+00	2.224792e+00	2.163193e+00	2.102651e+00	2.043112e+00	1.984565e+00	1.926948e+00	1.870275e+00	1.814379e+00	1.759165e+00	1.703193e+00	1.664481e+00	1.649201e+00	1.643219e+00	1.647813e+00	1.676512e+00	1.705086e+00	1.722703e+00	1.737228e+00	1.753279e+00	1.768303e+00	1.782364e+00	1.795673e+00	1.807608e+00	1.818576e+00	1.829020e+00	1.839058e+00	1.847473e+00	1.854534e+00	1.860408e+00	1.864871e+00	1.869022e+00	1.873587e+00	1.878636e+00	1.883902e+00	1.889012e+00	1.894242e+00	1.899829e+00	1.905445e+00	1.911027e+00	1.916217e+00	1.921731e+00	1.927369e+00	1.934185e+00	1.941228e+00	1.950288e+00	1.957181e+00	1.963019e+00	1.965342e+00	1.940418e+00	1.640878e+00	1.092860e+00	1.001030e+00	1.000010e+00	1.000000e+00	1.000000e+00	1.000000e+00	1.000000e+00	1.000000e+00	1.000000e+00	1.000000e+00	1.000000e+00	1.000000e+00	1.000000e+00	1.000000e+00	1.000000e+00	1.000000e+00	1.000000e+00	4.000000e+00	4.000000e+00	4.000000e+00	4.000000e+00	4.000000e+00	4.000000e+00	4.000000e+00	4.000000e+00	3.999998e+00	3.999988e+00	3.999916e+00	3.999280e+00	3.992730e+00	3.937839e+00	3.849373e+00	3.759332e+00	3.667438e+00	3.575391e+00	3.484525e+00	3.394787e+00	3.307884e+00	3.223624e+00	3.141612e+00	3.061635e+00	2.983580e+00	2.907340e+00	2.832786e+00	2.759825e+00	2.688374e+00	2.618362e+00	2.549735e+00	2.482428e+00	2.416376e+00	2.351528e+00	2.287853e+00	2.225333e+00	2.163913e+00	2.103539e+00	2.044146e+00	1.985719e+00	1.928212e+00	1.871633e+00	1.815840e+00	1.760714e+00	1.704931e+00	1.667645e+00	1.652896e+00	1.647029e+00	1.653238e+00	1.681860e+00	1.709573e+00	1.726846e+00	1.742112e+00	1.758718e+00	1.774316e+00	1.788887e+00	1.802317e+00	1.814160e+00	1.824773e+00	1.834780e+00	1.845359e+00	1.856137e+00	1.864587e+00	1.870695e+00	1.875012e+00	1.878338e+00	1.881949e+00	1.886056e+00	1.890817e+00	1.895355e+00	1.900154e+00	1.905095e+00	1.911158e+00	1.917703e+00	1.924653e+00	1.931183e+00	1.937954e+00	1.944382e+00	1.949623e+00	1.953481e+00	1.956015e+00	1.958111e+00	1.957884e+00	1.930998e+00	1.629577e+00	1.089138e+00	1.000959e+00	1.000009e+00	1.000000e+00	1.000000e+00	1.000000e+00	1.000000e+00	1.000000e+00	1.000000e+00	1.000000e+00	1.000000e+00	1.000000e+00	1.000000e+00	1.000000e+00	1.000000e+00	1.000000e+00	1.000000e+00	4.000000e+00	4.000000e+00	4.000000e+00	4.000000e+00	4.000000e+00	4.000000e+00	4.000000e+00	4.000000e+00	3.999999e+00	3.999992e+00	3.999924e+00	3.999162e+00	3.991063e+00	3.925156e+00	3.829694e+00	3.733241e+00	3.640309e+00	3.550075e+00	3.463642e+00	3.377821e+00	3.293105e+00	3.210282e+00	3.129489e+00	3.050533e+00	2.973311e+00	2.897753e+00	2.823780e+00	2.751333e+00	2.680336e+00	2.610731e+00	2.542473e+00	2.475516e+00	2.409806e+00	2.345288e+00	2.281923e+00	2.219686e+00	2.158537e+00	2.098428e+00	2.039289e+00	1.981101e+00	1.923822e+00	1.867439e+00	1.811862e+00	1.756889e+00	1.701577e+00	1.666547e+00	1.652755e+00	1.647180e+00	1.656031e+00	1.684875e+00	1.711663e+00	1.728800e+00	1.745379e+00	1.762601e+00	1.778026e+00	1.792444e+00	1.805711e+00	1.817355e+00	1.827696e+00	1.837388e+00	1.847324e+00	1.857785e+00	1.869179e+00	1.879280e+00	1.885499e+00	1.888877e+00	1.892027e+00	1.895123e+00	1.898581e+00	1.902673e+00	1.907019e+00	1.911193e+00	1.915859e+00	1.922824e+00	1.930438e+00	1.938171e+00	1.945534e+00	1.951592e+00	1.953960e+00	1.949285e+00	1.948145e+00	1.950110e+00	1.949829e+00	1.921764e+00	1.612879e+00	1.080021e+00	1.000812e+00	1.000008e+00	1.000000e+00	1.000000e+00	1.000000e+00	1.000000e+00	1.000000e+00	1.000000e+00	1.000000e+00	1.000000e+00	1.000000e+00	1.000000e+00	1.000000e+00	1.000000e+00	1.000000e+00	1.000000e+00	4.000000e+00	4.000000e+00	4.000000e+00	4.000000e+00	4.000000e+00	4.000000e+00	4.000000e+00	4.000000e+00	3.999999e+00	3.999990e+00	3.999891e+00	3.998755e+00	3.984738e+00	3.904168e+00	3.801300e+00	3.699625e+00	3.605734e+00	3.519882e+00	3.437083e+00	3.356363e+00	3.274657e+00	3.193574e+00	3.114014e+00	3.036162e+00	2.959957e+00	2.885287e+00	2.812087e+00	2.740332e+00	2.669959e+00	2.600917e+00	2.533166e+00	2.466675e+00	2.401408e+00	2.337316e+00	2.274354e+00	2.212485e+00	2.151679e+00	2.091902e+00	2.033097e+00	1.975229e+00	1.918274e+00	1.862152e+00	1.806894e+00	1.752027e+00	1.697542e+00	1.665342e+00	1.652812e+00	1.647831e+00	1.660845e+00	1.689783e+00	1.715604e+00	1.733357e+00	1.750696e+00	1.766896e+00	1.780863e+00	1.794175e+00	1.806974e+00	1.818264e+00	1.828255e+00	1.837619e+00	1.847156e+00	1.856659e+00	1.867786e+00	1.879392e+00	1.891267e+00	1.899655e+00	1.904139e+00	1.907290e+00	1.909723e+00	1.912766e+00	1.916060e+00	1.918588e+00	1.922104e+00	1.928517e+00	1.936981e+00	1.946060e+00	1.951284e+00	1.955029e+00	1.951155e+00	1.943522e+00	1.943675e+00	1.945917e+00	1.945694e+00	1.915735e+00	1.588441e+00	1.064175e+00	1.000591e+00	1.000007e+00	1.000000e+00	1.000000e+00	1.000000e+00	1.000000e+00	1.000000e+00	1.000000e+00	1.000000e+00	1.000000e+00	1.000000e+00	1.000000e+00	1.000000e+00	1.000000e+00	1.000000e+00	1.000000e+00	3.999998e+00	3.999999e+00	4.000000e+00	4.000000e+00	4.000000e+00	4.000000e+00	4.000000e+00	4.000000e+00	3.999999e+00	3.999983e+00	3.999802e+00	3.997606e+00	3.970298e+00	3.870188e+00	3.761562e+00	3.659697e+00	3.567886e+00	3.484756e+00	3.406250e+00	3.329266e+00	3.251843e+00	3.173287e+00	3.095257e+00	3.018626e+00	2.943563e+00	2.869955e+00	2.797720e+00	2.726837e+00	2.657255e+00	2.588934e+00	2.521831e+00	2.455929e+00	2.391208e+00	2.327631e+00	2.265158e+00	2.203745e+00	2.143363e+00	2.083991e+00	2.025591e+00	1.968117e+00	1.911573e+00	1.855779e+00	1.800970e+00	1.746044e+00	1.692998e+00	1.664135e+00	1.653177e+00	1.649397e+00	1.667023e+00	1.696220e+00	1.720896e+00	1.738341e+00	1.755251e+00	1.770257e+00	1.782813e+00	1.794711e+00	1.806499e+00	1.817339e+00	1.826954e+00	1.836005e+00	1.845089e+00	1.854059e+00	1.863831e+00	1.874778e+00	1.887087e+00	1.902698e+00	1.913974e+00	1.921112e+00	1.923639e+00	1.924970e+00	1.926967e+00	1.928869e+00	1.932812e+00	1.937848e+00	1.942771e+00	1.945827e+00	1.948499e+00	1.947828e+00	1.942855e+00	1.937830e+00	1.941224e+00	1.945483e+00	1.946719e+00	1.912184e+00	1.547995e+00	1.046928e+00	1.000447e+00	1.000005e+00	1.000000e+00	1.000000e+00	1.000000e+00	1.000000e+00	1.000000e+00	1.000000e+00	1.000000e+00	1.000000e+00	1.000000e+00	1.000000e+00	1.000000e+00	1.000000e+00	1.000000e+00	1.000000e+00	3.999992e+00	3.999997e+00	3.999999e+00	4.000000e+00	4.000000e+00	4.000000e+00	4.000000e+00	4.000000e+00	3.999996e+00	3.999961e+00	3.999533e+00	3.994193e+00	3.936328e+00	3.821502e+00	3.712271e+00	3.615486e+00	3.527963e+00	3.447221e+00	3.371364e+00	3.297055e+00	3.223701e+00	3.148815e+00	3.073153e+00	2.998062e+00	2.924265e+00	2.851827e+00	2.780702e+00	2.710851e+00	2.642220e+00	2.574776e+00	2.508472e+00	2.443295e+00	2.379235e+00	2.316269e+00	2.254371e+00	2.193497e+00	2.133622e+00	2.074730e+00	2.016808e+00	1.959797e+00	1.903743e+00	1.848364e+00	1.794056e+00	1.739015e+00	1.688276e+00	1.663221e+00	1.654049e+00	1.652721e+00	1.675403e+00	1.704820e+00	1.726249e+00	1.742328e+00	1.758439e+00	1.772393e+00	1.784002e+00	1.794789e+00	1.805360e+00	1.815316e+00	1.824491e+00	1.833276e+00	1.841882e+00	1.850313e+00	1.858769e+00	1.868380e+00	1.879099e+00	1.891779e+00	1.909178e+00	1.925617e+00	1.936245e+00	1.939419e+00	1.940029e+00	1.940083e+00	1.943279e+00	1.943176e+00	1.941205e+00	1.940711e+00	1.940328e+00	1.937918e+00	1.934604e+00	1.935780e+00	1.942377e+00	1.950235e+00	1.951416e+00	1.905299e+00	1.494605e+00	1.027097e+00	1.000304e+00	1.000003e+00	1.000000e+00	1.000000e+00	1.000000e+00	1.000000e+00	1.000000e+00	1.000000e+00	1.000000e+00	1.000000e+00	1.000000e+00	1.000000e+00	1.000000e+00	1.000000e+00	1.000000e+00	1.000000e+00	3.999965e+00	3.999986e+00	3.999994e+00	3.999998e+00	3.999999e+00	3.999999e+00	3.999999e+00	3.999996e+00	3.999984e+00	3.999864e+00	3.998448e+00	3.978248e+00	3.872880e+00	3.758849e+00	3.657582e+00	3.568337e+00	3.485922e+00	3.407568e+00	3.332935e+00	3.261092e+00	3.190160e+00	3.119524e+00	3.047252e+00	2.974456e+00	2.902222e+00	2.831070e+00	2.761151e+00	2.692448e+00	2.624899e+00	2.558467e+00	2.493095e+00	2.428774e+00	2.365492e+00	2.303240e+00	2.242007e+00	2.181757e+00	2.122474e+00	2.064140e+00	2.006765e+00	1.950291e+00	1.894787e+00	1.839951e+00	1.786034e+00	1.731211e+00	1.683807e+00	1.662939e+00	1.655265e+00	1.658769e+00	1.685569e+00	1.713351e+00	1.730706e+00	1.745188e+00	1.760362e+00	1.773612e+00	1.784693e+00	1.794777e+00	1.804318e+00	1.813086e+00	1.821454e+00	1.829845e+00	1.837957e+00	1.845796e+00	1.853319e+00	1.860653e+00	1.869194e+00	1.879301e+00	1.891790e+00	1.908629e+00	1.928627e+00	1.944182e+00	1.950396e+00	1.951331e+00	1.949354e+00	1.945501e+00	1.940979e+00	1.936710e+00	1.933227e+00	1.930555e+00	1.932808e+00	1.938566e+00	1.946634e+00	1.955806e+00	1.957133e+00	1.895420e+00	1.423235e+00	1.014907e+00	1.000192e+00	1.000002e+00	1.000000e+00	1.000000e+00	1.000000e+00	1.000000e+00	1.000000e+00	1.000000e+00	1.000000e+00	1.000000e+00	1.000000e+00	1.000000e+00	1.000000e+00	1.000000e+00	1.000000e+00	1.000000e+00	3.999848e+00	3.999939e+00	3.999973e+00	3.999988e+00	3.999992e+00	3.999990e+00	3.999983e+00	3.999961e+00	3.999864e+00	3.999136e+00	3.991046e+00	3.913245e+00	3.796721e+00	3.691674e+00	3.600136e+00	3.518379e+00	3.441109e+00	3.365800e+00	3.292464e+00	3.221946e+00	3.153137e+00	3.085141e+00	3.017086e+00	2.947457e+00	2.877426e+00	2.807836e+00	2.739237e+00	2.671754e+00	2.605373e+00	2.540049e+00	2.475716e+00	2.412364e+00	2.349973e+00	2.288541e+00	2.228072e+00	2.168535e+00	2.109927e+00	2.052230e+00	1.995469e+00	1.939605e+00	1.884691e+00	1.830533e+00	1.776933e+00	1.722762e+00	1.680073e+00	1.663246e+00	1.657203e+00	1.667755e+00	1.695545e+00	1.720879e+00	1.734343e+00	1.747238e+00	1.761419e+00	1.774314e+00	1.785224e+00	1.794895e+00	1.803723e+00	1.811554e+00	1.818871e+00	1.826498e+00	1.834082e+00	1.841588e+00	1.848698e+00	1.854857e+00	1.860515e+00	1.866241e+00	1.874657e+00	1.887013e+00	1.903386e+00	1.926796e+00	1.949105e+00	1.955063e+00	1.953377e+00	1.949003e+00	1.943468e+00	1.937187e+00	1.931576e+00	1.931158e+00	1.935221e+00	1.943937e+00	1.953247e+00	1.961205e+00	1.962714e+00	1.874292e+00	1.336641e+00	1.009492e+00	1.000108e+00	1.000001e+00	1.000000e+00	1.000000e+00	1.000000e+00	1.000000e+00	1.000000e+00	1.000000e+00	1.000000e+00	1.000000e+00	1.000000e+00	1.000000e+00	1.000000e+00	1.000000e+00	1.000000e+00	1.000000e+00	3.999335e+00	3.999720e+00	3.999861e+00	3.999916e+00	3.999924e+00	3.999891e+00	3.999802e+00	3.999533e+00	3.998448e+00	3.991046e+00	3.928388e+00	3.818870e+00	3.715848e+00	3.623048e+00	3.540893e+00	3.465640e+00	3.393322e+00	3.321705e+00	3.250582e+00	3.181089e+00	3.113737e+00	3.047658e+00	2.982337e+00	2.916701e+00	2.849622e+00	2.782156e+00	2.715118e+00	2.648937e+00	2.583771e+00	2.519613e+00	2.456392e+00	2.394094e+00	2.332687e+00	2.272172e+00	2.212558e+00	2.153819e+00	2.095965e+00	2.038981e+00	1.982897e+00	1.927721e+00	1.873444e+00	1.820067e+00	1.766852e+00	1.713860e+00	1.677047e+00	1.664339e+00	1.660774e+00	1.677314e+00	1.704440e+00	1.727120e+00	1.737481e+00	1.748867e+00	1.762015e+00	1.774745e+00	1.786092e+00	1.796221e+00	1.805202e+00	1.813534e+00	1.821427e+00	1.829341e+00	1.837124e+00	1.844581e+00	1.851494e+00	1.857770e+00	1.861545e+00	1.864533e+00	1.867411e+00	1.871223e+00	1.880018e+00	1.893606e+00	1.919018e+00	1.943535e+00	1.952280e+00	1.953000e+00	1.947985e+00	1.941149e+00	1.937003e+00	1.940211e+00	1.944025e+00	1.952447e+00	1.960351e+00	1.967319e+00	1.966080e+00	1.835756e+00	1.251451e+00	1.005659e+00	1.000055e+00	1.000001e+00	1.000000e+00	1.000000e+00	1.000000e+00	1.000000e+00	1.000000e+00	1.000000e+00	1.000000e+00	1.000000e+00	1.000000e+00	1.000000e+00	1.000000e+00	1.000000e+00	1.000000e+00	1.000000e+00	3.997072e+00	3.998609e+00	3.999111e+00	3.999280e+00	3.999162e+00	3.998755e+00	3.997606e+00	3.994193e+00	3.978248e+00	3.913245e+00	3.818870e+00	3.725005e+00	3.635731e+00	3.554358e+00	3.480110e+00	3.410761e+00	3.343142e+00	3.275481e+00	3.207264e+00	3.139371e+00	3.072947e+00	3.008290e+00	2.944735e+00	2.881672e+00	2.818326e+00	2.753737e+00	2.688781e+00	2.624137e+00	2.560260e+00	2.497299e+00	2.435221e+00	2.374026e+00	2.313668e+00	2.254144e+00	2.195462e+00	2.137598e+00	2.080572e+00	2.024374e+00	1.969034e+00	1.914617e+00	1.861053e+00	1.808518e+00	1.755888e+00	1.704873e+00	1.674911e+00	1.666183e+00	1.666080e+00	1.685889e+00	1.711979e+00	1.732179e+00	1.740516e+00	1.750446e+00	1.762879e+00	1.775969e+00	1.788816e+00	1.800944e+00	1.812344e+00	1.822133e+00	1.830656e+00	1.838367e+00	1.845773e+00	1.852495e+00	1.858755e+00	1.864305e+00	1.867938e+00	1.870052e+00	1.871566e+00	1.872973e+00	1.873979e+00	1.877223e+00	1.884575e+00	1.904356e+00	1.928079e+00	1.944809e+00	1.954657e+00	1.955906e+00	1.955005e+00	1.956164e+00	1.959305e+00	1.963830e+00	1.969259e+00	1.973937e+00	1.964397e+00	1.771485e+00	1.179080e+00	1.003211e+00	1.000029e+00	1.000000e+00	1.000000e+00	1.000000e+00	1.000000e+00	1.000000e+00	1.000000e+00	1.000000e+00	1.000000e+00	1.000000e+00	1.000000e+00	1.000000e+00	1.000000e+00	1.000000e+00	1.000000e+00	1.000000e+00	3.987192e+00	3.991866e+00	3.992980e+00	3.992730e+00	3.991063e+00	3.984738e+00	3.970298e+00	3.936328e+00	3.872880e+00	3.796721e+00	3.715848e+00	3.635731e+00	3.558625e+00	3.485943e+00	3.418711e+00	3.354658e+00	3.291386e+00	3.227493e+00	3.162410e+00	3.096941e+00	3.031757e+00	2.968049e+00	2.905735e+00	2.844321e+00	2.783452e+00	2.722122e+00	2.659904e+00	2.597283e+00	2.534943e+00	2.473268e+00	2.412364e+00	2.352289e+00	2.293004e+00	2.234513e+00	2.176813e+00	2.119885e+00	2.063752e+00	2.008409e+00	1.953885e+00	1.900288e+00	1.847553e+00	1.795842e+00	1.744079e+00	1.696458e+00	1.674096e+00	1.668029e+00	1.671664e+00	1.693067e+00	1.717933e+00	1.736420e+00	1.743813e+00	1.753015e+00	1.765522e+00	1.779874e+00	1.794629e+00	1.808411e+00	1.820712e+00	1.831989e+00	1.841435e+00	1.849265e+00	1.856300e+00	1.862329e+00	1.868101e+00	1.873279e+00	1.877410e+00	1.879536e+00	1.880419e+00	1.880051e+00	1.878994e+00	1.878096e+00	1.876793e+00	1.882642e+00	1.898759e+00	1.925252e+00	1.949504e+00	1.968042e+00	1.973560e+00	1.977144e+00	1.978929e+00	1.978947e+00	1.979063e+00	1.974933e+00	1.949646e+00	1.690886e+00	1.122253e+00	1.001638e+00	1.000015e+00	1.000000e+00	1.000000e+00	1.000000e+00	1.000000e+00	1.000000e+00	1.000000e+00	1.000000e+00	1.000000e+00	1.000000e+00	1.000000e+00	1.000000e+00	1.000000e+00	1.000000e+00	1.000000e+00	1.000000e+00	3.947858e+00	3.948639e+00	3.944414e+00	3.937839e+00	3.925156e+00	3.904168e+00	3.870188e+00	3.821502e+00	3.758849e+00	3.691674e+00	3.623048e+00	3.554358e+00	3.485943e+00	3.420605e+00	3.358473e+00	3.298255e+00	3.238673e+00	3.178209e+00	3.116361e+00	3.053635e+00	2.990286e+00	2.927627e+00	2.866147e+00	2.805831e+00	2.746461e+00	2.687519e+00	2.628137e+00	2.568055e+00	2.507696e+00	2.447563e+00	2.387949e+00	2.329036e+00	2.270841e+00	2.213399e+00	2.156706e+00	2.100750e+00	2.045556e+00	1.991119e+00	1.937485e+00	1.884757e+00	1.832995e+00	1.782026e+00	1.731560e+00	1.690032e+00	1.674335e+00	1.669754e+00	1.676939e+00	1.698971e+00	1.722583e+00	1.740214e+00	1.747954e+00	1.757739e+00	1.770283e+00	1.784207e+00	1.798589e+00	1.812344e+00	1.824812e+00	1.836569e+00	1.848431e+00	1.858751e+00	1.866433e+00	1.872683e+00	1.878547e+00	1.883665e+00	1.888246e+00	1.890907e+00	1.892109e+00	1.891730e+00	1.890436e+00	1.888589e+00	1.887525e+00	1.888156e+00	1.895944e+00	1.910326e+00	1.937547e+00	1.962796e+00	1.983878e+00	1.994282e+00	1.996875e+00	1.988207e+00	1.979798e+00	1.970013e+00	1.930311e+00	1.605520e+00	1.074570e+00	1.000746e+00	1.000008e+00	1.000000e+00	1.000000e+00	1.000000e+00	1.000000e+00	1.000000e+00	1.000000e+00	1.000000e+00	1.000000e+00	1.000000e+00	1.000000e+00	1.000000e+00	1.000000e+00	1.000000e+00	1.000000e+00	1.000000e+00	3.876528e+00	3.874147e+00	3.863024e+00	3.849373e+00	3.829694e+00	3.801300e+00	3.761562e+00	3.712271e+00	3.657582e+00	3.600136e+00	3.540893e+00	3.480110e+00	3.418711e+00	3.358473e+00	3.300178e+00	3.243079e+00	3.186258e+00	3.128449e+00	3.069465e+00	3.009127e+00	2.948414e+00	2.887085e+00	2.826532e+00	2.766988e+00	2.708552e+00	2.650971e+00	2.593779e+00	2.536238e+00	2.478221e+00	2.420012e+00	2.361947e+00	2.304339e+00	2.247302e+00	2.190939e+00	2.135273e+00	2.080310e+00	2.026087e+00	1.972593e+00	1.919916e+00	1.868114e+00	1.817427e+00	1.767373e+00	1.719263e+00	1.685593e+00	1.674696e+00	1.671503e+00	1.682066e+00	1.703902e+00	1.726295e+00	1.743959e+00	1.753353e+00	1.763064e+00	1.774423e+00	1.786668e+00	1.799535e+00	1.812473e+00	1.824571e+00	1.835822e+00	1.847382e+00	1.858805e+00	1.870622e+00	1.881049e+00	1.889070e+00	1.894528e+00	1.899661e+00	1.903294e+00	1.906264e+00	1.907915e+00	1.908949e+00	1.905958e+00	1.902925e+00	1.902451e+00	1.905697e+00	1.913290e+00	1.928235e+00	1.956646e+00	1.979385e+00	1.987905e+00	1.992445e+00	1.987484e+00	1.979223e+00	1.967031e+00	1.911561e+00	1.514713e+00	1.035029e+00	1.000364e+00	1.000004e+00	1.000000e+00	1.000000e+00	1.000000e+00	1.000000e+00	1.000000e+00	1.000000e+00	1.000000e+00	1.000000e+00	1.000000e+00	1.000000e+00	1.000000e+00	1.000000e+00	1.000000e+00	1.000000e+00	1.000000e+00	3.791462e+00	3.790267e+00	3.776913e+00	3.759332