# vtk DataFile Version 3.0
vtk output
ASCII
DATASET STRUCTURED_GRID
DIMENSIONS 102 102 1
POINTS 10404 double
0.000000e+00	0.000000e+00	0.0	1.980198e+00	0.000000e+00	0.0	3.960396e+00	0.000000e+00	0.0	5.940594e+00	0.000000e+00	0.0	7.920792e+00	0.000000e+00	0.0	9.900990e+00	0.000000e+00	0.0	1.188119e+01	0.000000e+00	0.0	1.386139e+01	0.000000e+00	0.0	1.584158e+01	0.000000e+00	0.0	1.782178e+01	0.000000e+00	0.0	1.980198e+01	0.000000e+00	0.0	2.178218e+01	0.000000e+00	0.0	2.376238e+01	0.000000e+00	0.0	2.574257e+01	0.000000e+00	0.0	2.772277e+01	0.000000e+00	0.0	2.970297e+01	0.000000e+00	0.0	3.168317e+01	0.000000e+00	0.0	3.366337e+01	0.000000e+00	0.0	3.564356e+01	0.000000e+00	0.0	3.762376e+01	0.000000e+00	0.0	3.960396e+01	0.000000e+00	0.0	4.158416e+01	0.000000e+00	0.0	4.356436e+01	0.000000e+00	0.0	4.554455e+01	0.000000e+00	0.0	4.752475e+01	0.000000e+00	0.0	4.950495e+01	0.000000e+00	0.0	5.148515e+01	0.000000e+00	0.0	5.346535e+01	0.000000e+00	0.0	5.544554e+01	0.000000e+00	0.0	5.742574e+01	0.000000e+00	0.0	5.940594e+01	0.000000e+00	0.0	6.138614e+01	0.000000e+00	0.0	6.336634e+01	0.000000e+00	0.0	6.534653e+01	0.000000e+00	0.0	6.732673e+01	0.000000e+00	0.0	6.930693e+01	0.000000e+00	0.0	7.128713e+01	0.000000e+00	0.0	7.326733e+01	0.000000e+00	0.0	7.524752e+01	0.000000e+00	0.0	7.722772e+01	0.000000e+00	0.0	7.920792e+01	0.000000e+00	0.0	8.118812e+01	0.000000e+00	0.0	8.316832e+01	0.000000e+00	0.0	8.514851e+01	0.000000e+00	0.0	8.712871e+01	0.000000e+00	0.0	8.910891e+01	0.000000e+00	0.0	9.108911e+01	0.000000e+00	0.0	9.306931e+01	0.000000e+00	0.0	9.504950e+01	0.000000e+00	0.0	9.702970e+01	0.000000e+00	0.0	9.900990e+01	0.000000e+00	0.0	1.009901e+02	0.000000e+00	0.0	1.029703e+02	0.000000e+00	0.0	1.049505e+02	0.000000e+00	0.0	1.069307e+02	0.000000e+00	0.0	1.089109e+02	0.000000e+00	0.0	1.108911e+02	0.000000e+00	0.0	1.128713e+02	0.000000e+00	0.0	1.148515e+02	0.000000e+00	0.0	1.168317e+02	0.000000e+00	0.0	1.188119e+02	0.000000e+00	0.0	1.207921e+02	0.000000e+00	0.0	1.227723e+02	0.000000e+00	0.0	1.247525e+02	0.000000e+00	0.0	1.267327e+02	0.000000e+00	0.0	1.287129e+02	0.000000e+00	0.0	1.306931e+02	0.000000e+00	0.0	1.326733e+02	0.000000e+00	0.0	1.346535e+02	0.000000e+00	0.0	1.366337e+02	0.000000e+00	0.0	1.386139e+02	0.000000e+00	0.0	1.405941e+02	0.000000e+00	0.0	1.425743e+02	0.000000e+00	0.0	1.445545e+02	0.000000e+00	0.0	1.465347e+02	0.000000e+00	0.0	1.485149e+02	0.000000e+00	0.0	1.504950e+02	0.000000e+00	0.0	1.524752e+02	0.000000e+00	0.0	1.544554e+02	0.000000e+00	0.0	1.564356e+02	0.000000e+00	0.0	1.584158e+02	0.000000e+00	0.0	1.603960e+02	0.000000e+00	0.0	1.623762e+02	0.000000e+00	0.0	1.643564e+02	0.000000e+00	0.0	1.663366e+02	0.000000e+00	0.0	1.683168e+02	0.000000e+00	0.0	1.702970e+02	0.000000e+00	0.0	1.722772e+02	0.000000e+00	0.0	1.742574e+02	0.000000e+00	0.0	1.762376e+02	0.000000e+00	0.0	1.782178e+02	0.000000e+00	0.0	1.801980e+02	0.000000e+00	0.0	1.821782e+02	0.000000e+00	0.0	1.841584e+02	0.000000e+00	0.0	1.861386e+02	0.000000e+00	0.0	1.881188e+02	0.000000e+00	0.0	1.900990e+02	0.000000e+00	0.0	1.920792e+02	0.000000e+00	0.0	1.940594e+02	0.000000e+00	0.0	1.960396e+02	0.000000e+00	0.0	1.980198e+02	0.000000e+00	0.0	2.000000e+02	0.000000e+00	0.0	0.000000e+00	1.980198e+00	0.0	1.980198e+00	1.980198e+00	0.0	3.960396e+00	1.980198e+00	0.0	5.940594e+00	1.980198e+00	0.0	7.920792e+00	1.980198e+00	0.0	9.900990e+00	1.980198e+00	0.0	1.188119e+01	1.980198e+00	0.0	1.386139e+01	1.980198e+00	0.0	1.584158e+01	1.980198e+00	0.0	1.782178e+01	1.980198e+00	0.0	1.980198e+01	1.980198e+00	0.0	2.178218e+01	1.980198e+00	0.0	2.376238e+01	1.980198e+00	0.0	2.574257e+01	1.980198e+00	0.0	2.772277e+01	1.980198e+00	0.0	2.970297e+01	1.980198e+00	0.0	3.168317e+01	1.980198e+00	0.0	3.366337e+01	1.980198e+00	0.0	3.564356e+01	1.980198e+00	0.0	3.762376e+01	1.980198e+00	0.0	3.960396e+01	1.980198e+00	0.0	4.158416e+01	1.980198e+00	0.0	4.356436e+01	1.980198e+00	0.0	4.554455e+01	1.980198e+00	0.0	4.752475e+01	1.980198e+00	0.0	4.950495e+01	1.980198e+00	0.0	5.148515e+01	1.980198e+00	0.0	5.346535e+01	1.980198e+00	0.0	5.544554e+01	1.980198e+00	0.0	5.742574e+01	1.980198e+00	0.0	5.940594e+01	1.980198e+00	0.0	6.138614e+01	1.980198e+00	0.0	6.336634e+01	1.980198e+00	0.0	6.534653e+01	1.980198e+00	0.0	6.732673e+01	1.980198e+00	0.0	6.930693e+01	1.980198e+00	0.0	7.128713e+01	1.980198e+00	0.0	7.326733e+01	1.980198e+00	0.0	7.524752e+01	1.980198e+00	0.0	7.722772e+01	1.980198e+00	0.0	7.920792e+01	1.980198e+00	0.0	8.118812e+01	1.980198e+00	0.0	8.316832e+01	1.980198e+00	0.0	8.514851e+01	1.980198e+00	0.0	8.712871e+01	1.980198e+00	0.0	8.910891e+01	1.980198e+00	0.0	9.108911e+01	1.980198e+00	0.0	9.306931e+01	1.980198e+00	0.0	9.504950e+01	1.980198e+00	0.0	9.702970e+01	1.980198e+00	0.0	9.900990e+01	1.980198e+00	0.0	1.009901e+02	1.980198e+00	0.0	1.029703e+02	1.980198e+00	0.0	1.049505e+02	1.980198e+00	0.0	1.069307e+02	1.980198e+00	0.0	1.089109e+02	1.980198e+00	0.0	1.108911e+02	1.980198e+00	0.0	1.128713e+02	1.980198e+00	0.0	1.148515e+02	1.980198e+00	0.0	1.168317e+02	1.980198e+00	0.0	1.188119e+02	1.980198e+00	0.0	1.207921e+02	1.980198e+00	0.0	1.227723e+02	1.980198e+00	0.0	1.247525e+02	1.980198e+00	0.0	1.267327e+02	1.980198e+00	0.0	1.287129e+02	1.980198e+00	0.0	1.306931e+02	1.980198e+00	0.0	1.326733e+02	1.980198e+00	0.0	1.346535e+02	1.980198e+00	0.0	1.366337e+02	1.980198e+00	0.0	1.386139e+02	1.980198e+00	0.0	1.405941e+02	1.980198e+00	0.0	1.425743e+02	1.980198e+00	0.0	1.445545e+02	1.980198e+00	0.0	1.465347e+02	1.980198e+00	0.0	1.485149e+02	1.980198e+00	0.0	1.504950e+02	1.980198e+00	0.0	1.524752e+02	1.980198e+00	0.0	1.544554e+02	1.980198e+00	0.0	1.564356e+02	1.980198e+00	0.0	1.584158e+02	1.980198e+00	0.0	1.603960e+02	1.980198e+00	0.0	1.623762e+02	1.980198e+00	0.0	1.643564e+02	1.980198e+00	0.0	1.663366e+02	1.980198e+00	0.0	1.683168e+02	1.980198e+00	0.0	1.702970e+02	1.980198e+00	0.0	1.722772e+02	1.980198e+00	0.0	1.742574e+02	1.980198e+00	0.0	1.762376e+02	1.980198e+00	0.0	1.782178e+02	1.980198e+00	0.0	1.801980e+02	1.980198e+00	0.0	1.821782e+02	1.980198e+00	0.0	1.841584e+02	1.980198e+00	0.0	1.861386e+02	1.980198e+00	0.0	1.881188e+02	1.980198e+00	0.0	1.900990e+02	1.980198e+00	0.0	1.920792e+02	1.980198e+00	0.0	1.940594e+02	1.980198e+00	0.0	1.960396e+02	1.980198e+00	0.0	1.980198e+02	1.980198e+00	0.0	2.000000e+02	1.980198e+00	0.0	0.000000e+00	3.960396e+00	0.0	1.980198e+00	3.960396e+00	0.0	3.960396e+00	3.960396e+00	0.0	5.940594e+00	3.960396e+00	0.0	7.920792e+00	3.960396e+00	0.0	9.900990e+00	3.960396e+00	0.0	1.188119e+01	3.960396e+00	0.0	1.386139e+01	3.960396e+00	0.0	1.584158e+01	3.960396e+00	0.0	1.782178e+01	3.960396e+00	0.0	1.980198e+01	3.960396e+00	0.0	2.178218e+01	3.960396e+00	0.0	2.376238e+01	3.960396e+00	0.0	2.574257e+01	3.960396e+00	0.0	2.772277e+01	3.960396e+00	0.0	2.970297e+01	3.960396e+00	0.0	3.168317e+01	3.960396e+00	0.0	3.366337e+01	3.960396e+00	0.0	3.564356e+01	3.960396e+00	0.0	3.762376e+01	3.960396e+00	0.0	3.960396e+01	3.960396e+00	0.0	4.158416e+01	3.960396e+00	0.0	4.356436e+01	3.960396e+00	0.0	4.554455e+01	3.960396e+00	0.0	4.752475e+01	3.960396e+00	0.0	4.950495e+01	3.960396e+00	0.0	5.148515e+01	3.960396e+00	0.0	5.346535e+01	3.960396e+00	0.0	5.544554e+01	3.960396e+00	0.0	5.742574e+01	3.960396e+00	0.0	5.940594e+01	3.960396e+00	0.0	6.138614e+01	3.960396e+00	0.0	6.336634e+01	3.960396e+00	0.0	6.534653e+01	3.960396e+00	0.0	6.732673e+01	3.960396e+00	0.0	6.930693e+01	3.960396e+00	0.0	7.128713e+01	3.960396e+00	0.0	7.326733e+01	3.960396e+00	0.0	7.524752e+01	3.960396e+00	0.0	7.722772e+01	3.960396e+00	0.0	7.920792e+01	3.960396e+00	0.0	8.118812e+01	3.960396e+00	0.0	8.316832e+01	3.960396e+00	0.0	8.514851e+01	3.960396e+00	0.0	8.712871e+01	3.960396e+00	0.0	8.910891e+01	3.960396e+00	0.0	9.108911e+01	3.960396e+00	0.0	9.306931e+01	3.960396e+00	0.0	9.504950e+01	3.960396e+00	0.0	9.702970e+01	3.960396e+00	0.0	9.900990e+01	3.960396e+00	0.0	1.009901e+02	3.960396e+00	0.0	1.029703e+02	3.960396e+00	0.0	1.049505e+02	3.960396e+00	0.0	1.069307e+02	3.960396e+00	0.0	1.089109e+02	3.960396e+00	0.0	1.108911e+02	3.960396e+00	0.0	1.128713e+02	3.960396e+00	0.0	1.148515e+02	3.960396e+00	0.0	1.168317e+02	3.960396e+00	0.0	1.188119e+02	3.960396e+00	0.0	1.207921e+02	3.960396e+00	0.0	1.227723e+02	3.960396e+00	0.0	1.247525e+02	3.960396e+00	0.0	1.267327e+02	3.960396e+00	0.0	1.287129e+02	3.960396e+00	0.0	1.306931e+02	3.960396e+00	0.0	1.326733e+02	3.960396e+00	0.0	1.346535e+02	3.960396e+00	0.0	1.366337e+02	3.960396e+00	0.0	1.386139e+02	3.960396e+00	0.0	1.405941e+02	3.960396e+00	0.0	1.425743e+02	3.960396e+00	0.0	1.445545e+02	3.960396e+00	0.0	1.465347e+02	3.960396e+00	0.0	1.485149e+02	3.960396e+00	0.0	1.504950e+02	3.960396e+00	0.0	1.524752e+02	3.960396e+00	0.0	1.544554e+02	3.960396e+00	0.0	1.564356e+02	3.960396e+00	0.0	1.584158e+02	3.960396e+00	0.0	1.603960e+02	3.960396e+00	0.0	1.623762e+02	3.960396e+00	0.0	1.643564e+02	3.960396e+00	0.0	1.663366e+02	3.960396e+00	0.0	1.683168e+02	3.960396e+00	0.0	1.702970e+02	3.960396e+00	0.0	1.722772e+02	3.960396e+00	0.0	1.742574e+02	3.960396e+00	0.0	1.762376e+02	3.960396e+00	0.0	1.782178e+02	3.960396e+00	0.0	1.801980e+02	3.960396e+00	0.0	1.821782e+02	3.960396e+00	0.0	1.841584e+02	3.960396e+00	0.0	1.861386e+02	3.960396e+00	0.0	1.881188e+02	3.960396e+00	0.0	1.900990e+02	3.960396e+00	0.0	1.920792e+02	3.960396e+00	0.0	1.940594e+02	3.960396e+00	0.0	1.960396e+02	3.960396e+00	0.0	1.980198e+02	3.960396e+00	0.0	2.000000e+02	3.960396e+00	0.0	0.000000e+00	5.940594e+00	0.0	1.980198e+00	5.940594e+00	0.0	3.960396e+00	5.940594e+00	0.0	5.940594e+00	5.940594e+00	0.0	7.920792e+00	5.940594e+00	0.0	9.900990e+00	5.940594e+00	0.0	1.188119e+01	5.940594e+00	0.0	1.386139e+01	5.940594e+00	0.0	1.584158e+01	5.940594e+00	0.0	1.782178e+01	5.940594e+00	0.0	1.980198e+01	5.940594e+00	0.0	2.178218e+01	5.940594e+00	0.0	2.376238e+01	5.940594e+00	0.0	2.574257e+01	5.940594e+00	0.0	2.772277e+01	5.940594e+00	0.0	2.970297e+01	5.940594e+00	0.0	3.168317e+01	5.940594e+00	0.0	3.366337e+01	5.940594e+00	0.0	3.564356e+01	5.940594e+00	0.0	3.762376e+01	5.940594e+00	0.0	3.960396e+01	5.940594e+00	0.0	4.158416e+01	5.940594e+00	0.0	4.356436e+01	5.940594e+00	0.0	4.554455e+01	5.940594
[...]
POINT_DATA 10404

SCALARS Height double 1
LOOKUP_TABLE default
4.000000e+00	4.000000e+00	4.000000e+00	4.000000e+00	4.000000e+00	4.000000e+00	4.000000e+00	4.000000e+00	4.000000e+00	4.000000e+00	4.000000e+00	4.000000e+00	4.000000e+00	4.000000e+00	4.000000e+00	4.000000e+00	4.000000e+00	4.000000e+00	4.000000e+00	4.000000e+00	3.999999e+00	3.999997e+00	3.999987e+00	3.999945e+00	3.999765e+00	3.998998e+00	3.995703e+00	3.981642e+00	3.926677e+00	3.831108e+00	3.718148e+00	3.597868e+00	3.474385e+00	3.350445e+00	3.227852e+00	3.107526e+00	2.989631e+00	2.874040e+00	2.760641e+00	2.649436e+00	2.540465e+00	2.433703e+00	2.329052e+00	2.226335e+00	2.125401e+00	2.025944e+00	1.937680e+00	1.897567e+00	1.881921e+00	1.876007e+00	1.890928e+00	1.914108e+00	1.926273e+00	1.931571e+00	1.938400e+00	1.945107e+00	1.952730e+00	1.960015e+00	1.966099e+00	1.970217e+00	1.971682e+00	1.972191e+00	1.973333e+00	1.976476e+00	1.980711e+00	1.987508e+00	1.998838e+00	2.015103e+00	2.036259e+00	2.052339e+00	2.009786e+00	1.668280e+00	1.131738e+00	1.004394e+00	1.000113e+00	1.000003e+00	1.000000e+00	1.000000e+00	1.000000e+00	1.000000e+00	1.000000e+00	1.000000e+00	1.000000e+00	1.000000e+00	1.000000e+00	1.000000e+00	1.000000e+00	1.000000e+00	1.000000e+00	1.000000e+00	1.000000e+00	1.000000e+00	1.000000e+00	1.000000e+00	1.000000e+00	1.000000e+00	1.000000e+00	1.000000e+00	1.000000e+00	1.000000e+00	1.000000e+00	1.000000e+00	4.000000e+00	4.000000e+00	4.000000e+00	4.000000e+00	4.000000e+00	4.000000e+00	4.000000e+00	4.000000e+00	4.000000e+00	4.000000e+00	4.000000e+00	4.000000e+00	4.000000e+00	4.000000e+00	4.000000e+00	4.000000e+00	4.000000e+00	4.000000e+00	4.000000e+00	4.000000e+00	4.000000e+00	3.999999e+00	3.999995e+00	3.999978e+00	3.999903e+00	3.999566e+00	3.997908e+00	3.988148e+00	3.927142e+00	3.827704e+00	3.716020e+00	3.597710e+00	3.475244e+00	3.351990e+00	3.230172e+00	3.110364e+00	2.992898e+00	2.877778e+00	2.764816e+00	2.653989e+00	2.545409e+00	2.439012e+00	2.334608e+00	2.232099e+00	2.131401e+00	2.032132e+00	1.944296e+00	1.904156e+00	1.888029e+00	1.881766e+00	1.895709e+00	1.919511e+00	1.932045e+00	1.938822e+00	1.946764e+00	1.953230e+00	1.960263e+00	1.967188e+00	1.973583e+00	1.978340e+00	1.980915e+00	1.983261e+00	1.985612e+00	1.989162e+00	1.995656e+00	2.003466e+00	2.015009e+00	2.030124e+00	2.046021e+00	2.057759e+00	2.028804e+00	1.661224e+00	1.070522e+00	1.000734e+00	1.000011e+00	1.000000e+00	1.000000e+00	1.000000e+00	1.000000e+00	1.000000e+00	1.000000e+00	1.000000e+00	1.000000e+00	1.000000e+00	1.000000e+00	1.000000e+00	1.000000e+00	1.000000e+00	1.000000e+00	1.000000e+00	1.000000e+00	1.000000e+00	1.000000e+00	1.000000e+00	1.000000e+00	1.000000e+00	1.000000e+00	1.000000e+00	1.000000e+00	1.000000e+00	1.000000e+00	1.000000e+00	4.000000e+00	4.000000e+00	4.000000e+00	4.000000e+00	4.000000e+00	4.000000e+00	4.000000e+00	4.000000e+00	4.000000e+00	4.000000e+00	4.000000e+00	4.000000e+00	4.000000e+00	4.000000e+00	4.000000e+00	4.000000e+00	4.000000e+00	4.000000e+00	4.000000e+00	4.000000e+00	4.000000e+00	4.000000e+00	3.999998e+00	3.999991e+00	3.999957e+00	3.999782e+00	3.998678e+00	3.989940e+00	3.923891e+00	3.816982e+00	3.703784e+00	3.584838e+00	3.463843e+00	3.340543e+00	3.217782e+00	3.097168e+00	2.978894e+00	2.862887e+00	2.749349e+00	2.638262e+00	2.529367e+00	2.422715e+00	2.318185e+00	2.215492e+00	2.114518e+00	2.014924e+00	1.929261e+00	1.891021e+00	1.875682e+00	1.870254e+00	1.885337e+00	1.907478e+00	1.921352e+00	1.933070e+00	1.944556e+00	1.953760e+00	1.962265e+00	1.970116e+00	1.978088e+00	1.985450e+00	1.991154e+00	1.995847e+00	1.999610e+00	2.004585e+00	2.010411e+00	2.016351e+00	2.021958e+00	2.028140e+00	2.035488e+00	2.037115e+00	2.004847e+00	1.648483e+00	1.071129e+00	1.000625e+00	1.000007e+00	1.000000e+00	1.000000e+00	1.000000e+00	1.000000e+00	1.000000e+00	1.000000e+00	1.000000e+00	1.000000e+00	1.000000e+00	1.000000e+00	1.000000e+00	1.000000e+00	1.000000e+00	1.000000e+00	1.000000e+00	1.000000e+00	1.000000e+00	1.000000e+00	1.000000e+00	1.000000e+00	1.000000e+00	1.000000e+00	1.000000e+00	1.000000e+00	1.000000e+00	1.000000e+00	1.000000e+00	4.000000e+00	4.000000e+00	4.000000e+00	4.000000e+00	4.000000e+00	4.000000e+00	4.000000e+00	4.000000e+00	4.000000e+00	4.000000e+00	4.000000e+00	4.000000e+00	4.000000e+00	4.000000e+00	4.000000e+00	4.000000e+00	4.000000e+00	4.000000e+00	4.000000e+00	4.000000e+00	4.000000e+00	4.000000e+00	3.999999e+00	3.999997e+00	3.999981e+00	3.999877e+00	3.999005e+00	3.990643e+00	3.919849e+00	3.804754e+00	3.687819e+00	3.570169e+00	3.450690e+00	3.330817e+00	3.209508e+00	3.089264e+00	2.971439e+00	2.856198e+00	2.743332e+00	2.632921e+00	2.524787e+00	2.418682e+00	2.314626e+00	2.212447e+00	2.111859e+00	2.012417e+00	1.929865e+00	1.893347e+00	1.878641e+00	1.873751e+00	1.889161e+00	1.909078e+00	1.923244e+00	1.937445e+00	1.950591e+00	1.960691e+00	1.969267e+00	1.977179e+00	1.985028e+00	1.993270e+00	2.002888e+00	2.012668e+00	2.019538e+00	2.025995e+00	2.031772e+00	2.034600e+00	2.037148e+00	2.033570e+00	2.029149e+00	2.023305e+00	1.982820e+00	1.635574e+00	1.070755e+00	1.000638e+00	1.000007e+00	1.000000e+00	1.000000e+00	1.000000e+00	1.000000e+00	1.000000e+00	1.000000e+00	1.000000e+00	1.000000e+00	1.000000e+00	1.000000e+00	1.000000e+00	1.000000e+00	1.000000e+00	1.000000e+00	1.000000e+00	1.000000e+00	1.000000e+00	1.000000e+00	1.000000e+00	1.000000e+00	1.000000e+00	1.000000e+00	1.000000e+00	1.000000e+00	1.000000e+00	1.000000e+00	1.000000e+00	4.000000e+00	4.000000e+00	4.000000e+00	4.000000e+00	4.000000e+00	4.000000e+00	4.000000e+00	4.000000e+00	4.000000e+00	4.000000e+00	4.000000e+00	4.000000e+00	4.000000e+00	4.000000e+00	4.000000e+00	4.000000e+00	4.000000e+00	4.000000e+00	4.000000e+00	4.000000e+00	4.000000e+00	4.000000e+00	4.000000e+00	3.999999e+00	3.999990e+00	3.999908e+00	3.999041e+00	3.989747e+00	3.911732e+00	3.789926e+00	3.668178e+00	3.549564e+00	3.431837e+00	3.313728e+00	3.196055e+00	3.077322e+00	2.959989e+00	2.845276e+00	2.732879e+00	2.622711e+00	2.515069e+00	2.409428e+00	2.305589e+00	2.203690e+00	2.103317e+00	2.003719e+00	1.924924e+00	1.891025e+00	1.877659e+00	1.874152e+00	1.890332e+00	1.907516e+00	1.920468e+00	1.935250e+00	1.949392e+00	1.960818e+00	1.970540e+00	1.979479e+00	1.988127e+00	1.997083e+00	2.007564e+00	2.019637e+00	2.031126e+00	2.039663e+00	2.045245e+00	2.046575e+00	2.038942e+00	2.028786e+00	2.020582e+00	2.011629e+00	1.969579e+00	1.605862e+00	1.059555e+00	1.000543e+00	1.000006e+00	1.000000e+00	1.000000e+00	1.000000e+00	1.000000e+00	1.000000e+00	1.000000e+00	1.000000e+00	1.000000e+00	1.000000e+00	1.000000e+00	1.000000e+00	1.000000e+00	1.000000e+00	1.000000e+00	1.000000e+00	1.000000e+00	1.000000e+00	1.000000e+00	1.000000e+00	1.000000e+00	1.000000e+00	1.000000e+00	1.000000e+00	1.000000e+00	1.000000e+00	1.000000e+00	1.000000e+00	4.000000e+00	4.000000e+00	4.000000e+00	4.000000e+00	4.000000e+00	4.000000e+00	4.000000e+00	4.000000e+00	4.000000e+00	4.000000e+00	4.000000e+00	4.000000e+00	4.000000e+00	4.000000e+00	4.000000e+00	4.000000e+00	4.000000e+00	4.000000e+00	4.000000e+00	4.000000e+00	4.000000e+00	4.000000e+00	4.000000e+00	3.999999e+00	3.999990e+00	3.999892e+00	3.998810e+00	3.986729e+00	3.896958e+00	3.771745e+00	3.646300e+00	3.524887e+00	3.407801e+00	3.291726e+00	3.176385e+00	3.062072e+00	2.946748e+00	2.832531e+00	2.720800e+00	2.611217e+00	2.503838e+00	2.398700e+00	2.295330e+00	2.193691e+00	2.093447e+00	1.993792e+00	1.919421e+00	1.888587e+00	1.876589e+00	1.875766e+00	1.895043e+00	1.909094e+00	1.916612e+00	1.928963e+00	1.942863e+00	1.955536e+00	1.966629e+00	1.977564e+00	1.988578e+00	1.998278e+00	2.006407e+00	2.015200e+00	2.025024e+00	2.035463e+00	2.044588e+00	2.042949e+00	2.034069e+00	2.023195e+00	2.016921e+00	2.007527e+00	1.962653e+00	1.566437e+00	1.043157e+00	1.000401e+00	1.000004e+00	1.000000e+00	1.000000e+00	1.000000e+00	1.000000e+00	1.000000e+00	1.000000e+00	1.000000e+00	1.000000e+00	1.000000e+00	1.000000e+00	1.000000e+00	1.000000e+00	1.000000e+00	1.000000e+00	1.000000e+00	1.000000e+00	1.000000e+00	1.000000e+00	1.000000e+00	1.000000e+00	1.000000e+00	1.000000e+00	1.000000e+00	1.000000e+00	1.000000e+00	1.000000e+00	1.000000e+00	4.000000e+00	4.000000e+00	4.000000e+00	4.000000e+00	4.000000e+00	4.000000e+00	4.000000e+00	4.000000e+00	4.000000e+00	4.000000e+00	4.000000e+00	4.000000e+00	4.000000e+00	4.000000e+00	4.000000e+00	4.000000e+00	4.000000e+00	4.000000e+00	4.000000e+00	4.000000e+00	4.000000e+00	4.000000e+00	4.000000e+00	3.999999e+00	3.999986e+00	3.999847e+00	3.998285e+00	3.978820e+00	3.875609e+00	3.749244e+00	3.622390e+00	3.498287e+00	3.379807e+00	3.265787e+00	3.152777e+00	3.040929e+00	2.930172e+00	2.818232e+00	2.707272e+00	2.598516e+00	2.491545e+00	2.386873e+00	2.284114e+00	2.182867e+00	2.082841e+00	1.983307e+00	1.913872e+00	1.886136e+00	1.875539e+00	1.878679e+00	1.900804e+00	1.911550e+00	1.915451e+00	1.923327e+00	1.933562e+00	1.945487e+00	1.957684e+00	1.968590e+00	1.978830e+00	1.988025e+00	1.996014e+00	2.002568e+00	2.010695e+00	2.019612e+00	2.026780e+00	2.029191e+00	2.024416e+00	2.022772e+00	2.020894e+00	2.016441e+00	1.964184e+00	1.508973e+00	1.020984e+00	1.000259e+00	1.000002e+00	1.000000e+00	1.000000e+00	1.000000e+00	1.000000e+00	1.000000e+00	1.000000e+00	1.000000e+00	1.000000e+00	1.000000e+00	1.000000e+00	1.000000e+00	1.000000e+00	1.000000e+00	1.000000e+00	1.000000e+00	1.000000e+00	1.000000e+00	1.000000e+00	1.000000e+00	1.000000e+00	1.000000e+00	1.000000e+00	1.000000e+00	1.000000e+00	1.000000e+00	1.000000e+00	1.000000e+00	4.000000e+00	4.000000e+00	4.000000e+00	4.000000e+00	4.000000e+00	4.000000e+00	4.000000e+00	4.000000e+00	4.000000e+00	4.000000e+00	4.000000e+00	4.000000e+00	4.000000e+00	4.000000e+00	4.000000e+00	4.000000e+00	4.000000e+00	4.000000e+00	4.000000e+00	4.000000e+00	4.000000e+00	4.000000e+00	4.000000e+00	3.999998e+00	3.999978e+00	3.999749e+00	3.997037e+00	3.963913e+00	3.848106e+00	3.721524e+00	3.595301e+00	3.470972e+00	3.350907e+00	3.236602e+00	3.125908e+00	3.015931e+00	2.907380e+00	2.800202e+00	2.691982e+00	2.584251e+00	2.478338e+00	2.374119e+00	2.271966e+00	2.171415e+00	2.071890e+00	1.972952e+00	1.909322e+00	1.884599e+00	1.875241e+00	1.883713e+00	1.906808e+00	1.915377e+00	1.917481e+00	1.922820e+00	1.929343e+00	1.937230e+00	1.947111e+00	1.957668e+00	1.966999e+00	1.975499e+00	1.982074e+00	1.986070e+00	1.990988e+00	1.997406e+00	2.004974e+00	2.009136e+00	2.015495e+00	2.025648e+00	2.034003e+00	2.038138e+00	1.964639e+00	1.415962e+00	1.012706e+00	1.000140e+00	1.000001e+00	1.000000e+00	1.000000e+00	1.000000e+00	1.000000e+00	1.000000e+00	1.000000e+00	1.000000e+00	1.000000e+00	1.000000e+00	1.000000e+00	1.000000e+00	1.000000e+00	1.000000e+00	1.000000e+00	1.000000e+00	1.000000e+00	1.000000e+00	1.000000e+00	1.000000e+00	1.000000e+00	1.000000e+00	1.000000e+00	1.000000e+00	1.000000e+00	1.000000e+00	1.000000e+00	1.000000e+00	4.000000e+00	4.000000e+00	4.000000e+00	4.000000e+00	4.000000e+00	4.000000e+00	4.000000e+00	4.000000e+00	4.000000e+00	4.000000e+00	4.000000e+00	4.000000e+00	4.000000e+00	4.000000e+00	4.000000e+00	4.000000e+00	4.000000e+00	4.000000e+00	4.000000e+00	4.000000e+00	4.000000e+00	4.000000e+00	4.000000e+00	3.999997e+00	3.999961e+00	3.999534e+00	3.994390e+00	3.938724e+00	3.815424e+00	3.688873e+00	3.564206e+00	3.442276e+00	3.322312e+00	3.206565e+00	3.095577e+00	2.987615e+00	2.880842e+00	2.775371e+00	2.671372e+00	2.567390e+00	2.463237e+00	2.360164e+00	2.258717e+00	2.159110e+00	2.060705e+00	1.963293e+00	1.906677e+00	1.884894e+00	1.876763e+00	1.889808e+00	1.912693e+00	1.920082e+00	1.921429e+00	1.926042e+00	1.931627e+00	1.937916e+00	1.944710e+00	1.951846e+00	1.959003e+00	1.965832e+00	1.971236e+00	1.975746e+00	1.978136e+00	1.980409e+00	1.988131e+00	1.994411e+00	2.005692e+00	2.030841e+00	2.050044e+00	2.056131e+00	1.945972e+00	1.316377e+00	1.007373e+00	1.000067e+00	1.000001e+00	1.000000e+00	1.000000e+00	1.000000e+00	1.000000e+00	1.000000e+00	1.000000e+00	1.000000e+00	1.000000e+00	1.000000e+00	1.000000e+00	1.000000e+00	1.000000e+00	1.000000e+00	1.000000e+00	1.000000e+00	1.000000e+00	1.000000e+00	1.000000e+00	1.000000e+00	1.000000e+00	1.000000e+00	1.000000e+00	1.000000e+00	1.000000e+00	1.000000e+00	1.000000e+00	1.000000e+00	4.000000e+00	4.000000e+00	4.000000e+00	4.000000e+00	4.000000e+00	4.000000e+00	4.000000e+00	4.000000e+00	4.000000e+00	4.000000e+00	4.000000e+00	4.000000e+00	4.000000e+00	4.000000e+00	4.000000e+00	4.000000e+00	4.000000e+00	4.000000e+00	4.000000e+00	4.000000e+00	4.000000e+00	4.000000e+00	3.999999e+00	3.999993e+00	3.999922e+00	3.999052e+00	3.989044e+00	3.901059e+00	3.776907e+00	3.652182e+00	3.529213e+00	3.410229e+00	3.293155e+00	3.177232e+00	3.064831e+00	2.955839e+00	2.850634e+00	2.746994e+00	2.644406e+00	2.543363e+00	2.443535e+00	2.343605e+00	2.243695e+00	2.145330e+00	2.048691e+00	1.954057e+00	1.904828e+00	1.886275e+00	1.879760e+00	1.896127e+00	1.919171e+00	1.926748e+00	1.929471e+00	1.935214e+00	1.941089e+00	1.946773e+00	1.952839e+00	1.957244e+00	1.961873e+00	1.967380e+00	1.974626e+00	1.979570e+00	1.982414e+00	1.983218e+00	1.986889e+00	1.994149e+00	2.015571e+00	2.040403e+00	2.058493e+00	2.059713e+00	1.897308e+00	1.224267e+00	1.004117e+00	1.000033e+00	1.000000e+00	1.000000e+00	1.000000e+00	1.000000e+00	1.000000e+00	1.000000e+00	1.000000e+00	1.000000e+00	1.000000e+00	1.000000e+00	1.000000e+00	1.000000e+00	1.000000e+00	1.000000e+00	1.000000e+00	1.000000e+00	1.000000e+00	1.000000e+00	1.000000e+00	1.000000e+00	1.000000e+00	1.000000e+00	1.000000e+00	1.000000e+00	1.000000e+00	1.000000e+00	1.000000e+00	1.000000e+00	4.000000e+00	4.000000e+00	4.000000e+00	4.000000e+00	4.000000e+00	4.000000e+00	4.000000e+00	4.000000e+00	4.000000e+00	4.000000e+00	4.000000e+00	4.000000e+00	4.000000e+00	4.000000e+00	4.000000e+00	4.000000e+00	4.000000e+00	4.000000e+00	4.000000e+00	4.000000e+00	4.000000e+00	4.000000e+00	3.999999e+00	3.999986e+00	3.999828e+00	3.997870e+00	3.971714e+00	3.859102e+00	3.733239e+00	3.610628e+00	3.490785e+00	3.374399e+00	3.260704e+00	3.147134e+00	3.035101e+00	2.925400e+00	2.818834e+00	2.715485e+00	2.614554e+00	2.514800e+00	2.416624e+00	2.319760e+00	2.223946e+00	2.128486e+00	2.034048e+00	1.945039e+00	1.902776e+00	1.888135e+00	1.884080e+00	1.903738e+00	1.928220e+00	1.939165e+00	1.944424e+00	1.950824e+00	1.956264e+00	1.960919e+00	1.966560e+00	1.971165e+00	1.976343e+00	1.980892e+00	1.985836e+00	1.988445e+00	1.992289e+00	1.997302e+00	2.004719e+00	2.016579e+00	2.031410e+00	2.046911e+00	2.059281e+00	2.052125e+00	1.813687e+00	1.156883e+00	1.002093e+00	1.000016e+00	1.000000e+00	1.000000e+00	1.000000e+00	1.000000e+00	1.000000e+00	1.000000e+00	1.000000e+00	1.000000e+00	1.000000e+00	1.000000e+00	1.000000e+00	1.000000e+00	1.000000e+00	1.000000e+00	1.000000e+00	1.000000e+00	1.000000e+00	1.000000e+00	1.000000e+00	1.000000e+00	1.000000e+00	1.000000e+00	1.000000e+00	1.000000e+00	1.000000e+00	1.000000e+00	1.000000e+00	1.000000e+00	4.000000e+00	4.000000e+00	4.000000e+00	4.000000e+00	4.000000e+00	4.000000e+00	4.000000e+00	4.000000e+00	4.000000e+00	4.000000e+00	4.000000e+00	4.000000e+00	4.000000e+00	4.000000e+00	4.000000e+00	4.000000e+00	4.000000e+00	4.000000e+00	4.000000e+00	4.000000e+00	4.000000e+00	4.000000e+00	3.999997e+00	3.999966e+00	3.999575e+00	3.994573e+00	3.937421e+00	3.812893e+00	3.686092e+00	3.564750e+00	3.448296e+00	3.334911e+00	3.224241e+00	3.114217e+00	3.004149e+00	2.894851e+00	2.787832e+00	2.684028e+00	2.583068e+00	2.484353e+00	2.387170e+00	2.291750e+00	2.198113e+00	2.106356e+00	2.015259e+00	1.935737e+00	1.900900e+00	1.890138e+00	1.890244e+00	1.913768e+00	1.939738e+00	1.954202e+00	1.961284e+00	1.967801e+00	1.972709e+00	1.976494e+00	1.981635e+00	1.985514e+00	1.990503e+00	1.994309e+00	1.997194e+00	2.002435e+00	2.008118e+00	2.014910e+00	2.022996e+00	2.033422e+00	2.040558e+00	2.048017e+00	2.051507e+00	2.029951e+00	1.711490e+00	1.099775e+00	1.000976e+00	1.000008e+00	1.000000e+00	1.000000e+00	1.000000e+00	1.000000e+00	1.000000e+00	1.000000e+00	1.000000e+00	1.000000e+00	1.000000e+00	1.000000e+00	1.000000e+00	1.000000e+00	1.000000e+00	1.000000e+00	1.000000e+00	1.000000e+00	1.000000e+00	1.000000e+00	1.000000e+00	1.000000e+00	1.000000e+00	1.000000e+00	1.000000e+00	1.000000e+00	1.000000e+00	1.000000e+00	1.000000e+00	1.000000e+00	4.000000e+00	4.000000e+00	4.000000e+00	4.000000e+00	4.000000e+00	4.000000e+00	4.000000e+00	4.000000e+00	4.000000e+00	4.000000e+00	4.000000e+00	4.000000e+00	4.000000e+00	4.000000e+00	4.000000e+00	4.000000e+00	4.000000e+00	4.000000e+00	4.000000e+00	4.000000e+00	4.000000e+00	3.999999e+00	3.999993e+00	3.999910e+00	3.998857e+00	3.984903e+00	3.886100e+00	3.759596e+00	3.635451e+00	3.516019e+00	3.402345e+00	3.292002e+00	3.183878e+00	3.077386e+00	2.970218e+00	2.863639e+00	2.757268e+00	2.652802e+00	2.551329e+00	2.452823e+00	2.356348e+00	2.261936e+00	2.169757e+00	2.080304e+00	1.992564e+00	1.925893e+00	1.899417e+00	1.892875e+00	1.899962e+00	1.924070e+00	1.949763e+00	1.967160e+00	1.976614e+00	1.983256e+00	1.988424e+00	1.991861e+00	1.995479e+00	1.998533e+00	2.002604e+00	2.006206e+00	2.008913e+00	2.015546e+00	2.022590e+00	2.028977e+00	2.036759e+00	2.042897e+00	2.043316e+00	2.043218e+00	2.042220e+00	2.001085e+00	1.601466e+00	1.049034e+00	1.000431e+00	1.000004e+00	1.000000e+00	1.000000e+00	1.000000e+00	1.000000e+00	1.000000e+00	1.000000e+00	1.000000e+00	1.000000e+00	1.000000e+00	1.000000e+00	1.000000e+00	1.000000e+00	1.000000e+00	1.000000e+00	1.000000e+00	1.000000e+00	1.000000e+00	1.000000e+00	1.000000e+00	1.000000e+00	1.000000e+00	1.000000e+00	1.000000e+00	1.000000e+00	1.000000e+00	1.000000e+00	1.000000e+00	1.000000e+00	4.000000e+00	4.000000e+00	4.000000e+00	4.000000e+00	4.000000e+00	4.000000e+00	4.000000e+00	4.000000e+00	4.000000e+00	4.000000e+00	4.000000e+00	4.000000e+00	4.000000e+00	4.000000e+00	4.000000e+00	4.000000e+00	4.000000e+00	4.000000e+00	4.000000e+00	4.000000e+00	4.000000e+00	3.999998e+00	3.999979e+00	3.999737e+00	3.996536e+00	3.954778e+00	3.829921e+00	3.701580e+00	3.580344e+00	3.464950e+00	3.354201e+00	3.246267e+00	3.140288e+00	3.035991e+00	2.933035e+00	2.828897e+00	2.725788e+00	2.622605e+00	2.521035e+00	2.421798e+00	2.325386e+00	2.231424e+00	2.140077e+00	2.052159e+00	1.968814e+00	1.916391e+00	1.898863e+00	1.896356e+00	1.908744e+00	1.931072e+00	1.955338e+00	1.975020e+00	1.987321e+00	1.995168e+00	2.001246e+00	2.005244e+00	2.007817e+00	2.011199e+00	2.014155e+00	2.017026e+00	2.019814e+00	2.026194e+00	2.034000e+00	2.039822e+00	2.042163e+00	2.039601e+00	2.036682e+00	2.036154e+00	2.031147e+00	1.966826e+00	1.473325e+00	1.016719e+00	1.000205e+00	1.000002e+00	1.000000e+00	1.000000e+00	1.000000e+00	1.000000e+00	1.000000e+00	1.000000e+00	1.000000e+00	1.000000e+00	1.000000e+00	1.000000e+00	1.000000e+00	1.000000e+00	1.000000e+00	1.000000e+00	1.000000e+00	1.000000e+00	1.000000e+00	1.000000e+00	1.000000e+00	1.000000e+00	1.000000e+00	1.000000e+00	1.000000e+00	1.000000e+00	1.000000e+00	1.000000e+00	1.000000e+00	1.000000e+00	4.000000e+00	4.000000e+00	4.000000e+00	4.000000e+00	4.000000e+00	4.000000e+00	4.000000e+00	4.000000e+00	4.000000e+00	4.000000e+00	4.000000e+00	4.000000e+00	4.000000e+00	4.000000e+00	4.000000e+00	4.000000e+00	4.000000e+00	4.000000e+00	4.000000e+00	4.000000e+00	4.000000e+00	3.999995e+00	3.999935e+00	3.999136e+00	3.989170e+00	3.895653e+00	3.765747e+00	3.639638e+00	3.522901e+00	3.411893e+00	3.304151e+00	3.198388e+00	3.094254e+00	2.991773e+00	2.891095e+00	2.790873e+00	2.690361e+00	2.590827e+00	2.491040e+00	2.392743e+00	2.296402e+00	2.202413e+00	2.111588e+00	2.024715e+00	1.950193e+00	1.912012e+00	1.900554e+00	1.899927e+00	1.912098e+00	1.930542e+00	1.952428e+00	1.974065e+00	1.989988e+00	2.001424e+00	2.009532e+00	2.015814e+00	2.019426e+00	2.022846e+00	2.024533e+00	2.026215e+00	2.028469e+00	2.032210e+00	2.035739e+00	2.035767e+00	2.034504e+00	2.032544e+00	2.031098e+00	2.030135e+00	2.023542e+00	1.916058e+00	1.327401e+00	1.008278e+00	1.000083e+00	1.000001e+00	1.000000e+00	1.000000e+00	1.000000e+00	1.000000e+00	1.000000e+00	1.000000e+00	1.000000e+00	1.000000e+00	1.000000e+00	1.000000e+00	1.000000e+00	1.000000e+00	1.000000e+00	1.000000e+00	1.000000e+00	1.000000e+00	1.000000e+00	1.000000e+00	1.000000e+00	1.000000e+00	1.000000e+00	1.000000e+00	1.000000e+00	1.000000e+00	1.000000e+00	1.000000e+00	1.000000e+00	1.000000e+00	4.000000e+00	4.000000e+00	4.000000e+00	4.000000