# vtk DataFile Version 3.0
vtk output
ASCII
DATASET STRUCTURED_GRID
DIMENSIONS 102 102 1
POINTS 10404 double
0.000000e+00	0.000000e+00	0.0	1.980198e+00	0.000000e+00	0.0	3.960396e+00	0.000000e+00	0.0	5.940594e+00	0.000000e+00	0.0	7.920792e+00	0.000000e+00	0.0	9.900990e+00	0.000000e+00	0.0	1.188119e+01	0.000000e+00	0.0	1.386139e+01	0.000000e+00	0.0	1.584158e+01	0.000000e+00	0.0	1.782178e+01	0.000000e+00	0.0	1.980198e+01	0.000000e+00	0.0	2.178218e+01	0.000000e+00	0.0	2.376238e+01	0.000000e+00	0.0	2.574257e+01	0.000000e+00	0.0	2.772277e+01	0.000000e+00	0.0	2.970297e+01	0.000000e+00	0.0	3.168317e+01	0.000000e+00	0.0	3.366337e+01	0.000000e+00	0.0	3.564356e+01	0.000000e+00	0.0	3.762376e+01	0.000000e+00	0.0	3.960396e+01	0.000000e+00	0.0	4.158416e+01	0.000000e+00	0.0	4.356436e+01	0.000000e+00	0.0	4.554455e+01	0.000000e+00	0.0	4.752475e+01	0.000000e+00	0.0	4.950495e+01	0.000000e+00	0.0	5.148515e+01	0.000000e+00	0.0	5.346535e+01	0.000000e+00	0.0	5.544554e+01	0.000000e+00	0.0	5.742574e+01	0.000000e+00	0.0	5.940594e+01	0.000000e+00	0.0	6.138614e+01	0.000000e+00	0.0	6.336634e+01	0.000000e+00	0.0	6.534653e+01	0.000000e+00	0.0	6.732673e+01	0.000000e+00	0.0	6.930693e+01	0.000000e+00	0.0	7.128713e+01	0.000000e+00	0.0	7.326733e+01	0.000000e+00	0.0	7.524752e+01	0.000000e+00	0.0	7.722772e+01	0.000000e+00	0.0	7.920792e+01	0.000000e+00	0.0	8.118812e+01	0.000000e+00	0.0	8.316832e+01	0.000000e+00	0.0	8.514851e+01	0.000000e+00	0.0	8.712871e+01	0.000000e+00	0.0	8.910891e+01	0.000000e+00	0.0	9.108911e+01	0.000000e+00	0.0	9.306931e+01	0.000000e+00	0.0	9.504950e+01	0.000000e+00	0.0	9.702970e+01	0.000000e+00	0.0	9.900990e+01	0.000000e+00	0.0	1.009901e+02	0.000000e+00	0.0	1.029703e+02	0.000000e+00	0.0	1.049505e+02	0.000000e+00	0.0	1.069307e+02	0.000000e+00	0.0	1.089109e+02	0.000000e+00	0.0	1.108911e+02	0.000000e+00	0.0	1.128713e+02	0.000000e+00	0.0	1.148515e+02	0.000000e+00	0.0	1.168317e+02	0.000000e+00	0.0	1.188119e+02	0.000000e+00	0.0	1.207921e+02	0.000000e+00	0.0	1.227723e+02	0.000000e+00	0.0	1.247525e+02	0.000000e+00	0.0	1.267327e+02	0.000000e+00	0.0	1.287129e+02	0.000000e+00	0.0	1.306931e+02	0.000000e+00	0.0	1.326733e+02	0.000000e+00	0.0	1.346535e+02	0.000000e+00	0.0	1.366337e+02	0.000000e+00	0.0	1.386139e+02	0.000000e+00	0.0	1.405941e+02	0.000000e+00	0.0	1.425743e+02	0.000000e+00	0.0	1.445545e+02	0.000000e+00	0.0	1.465347e+02	0.000000e+00	0.0	1.485149e+02	0.000000e+00	0.0	1.504950e+02	0.000000e+00	0.0	1.524752e+02	0.000000e+00	0.0	1.544554e+02	0.000000e+00	0.0	1.564356e+02	0.000000e+00	0.0	1.584158e+02	0.000000e+00	0.0	1.603960e+02	0.000000e+00	0.0	1.623762e+02	0.000000e+00	0.0	1.643564e+02	0.000000e+00	0.0	1.663366e+02	0.000000e+00	0.0	1.683168e+02	0.000000e+00	0.0	1.702970e+02	0.000000e+00	0.0	1.722772e+02	0.000000e+00	0.0	1.742574e+02	0.000000e+00	0.0	1.762376e+02	0.000000e+00	0.0	1.782178e+02	0.000000e+00	0.0	1.801980e+02	0.000000e+00	0.0	1.821782e+02	0.000000e+00	0.0	1.841584e+02	0.000000e+00	0.0	1.861386e+02	0.000000e+00	0.0	1.881188e+02	0.000000e+00	0.0	1.900990e+02	0.000000e+00	0.0	1.920792e+02	0.000000e+00	0.0	1.940594e+02	0.000000e+00	0.0	1.960396e+02	0.000000e+00	0.0	1.980198e+02	0.000000e+00	0.0	2.000000e+02	0.000000e+00	0.0	0.000000e+00	1.980198e+00	0.0	1.980198e+00	1.980198e+00	0.0	3.960396e+00	1.980198e+00	0.0	5.940594e+00	1.980198e+00	0.0	7.920792e+00	1.980198e+00	0.0	9.900990e+00	1.980198e+00	0.0	1.188119e+01	1.980198e+00	0.0	1.386139e+01	1.980198e+00	0.0	1.584158e+01	1.980198e+00	0.0	1.782178e+01	1.980198e+00	0.0	1.980198e+01	1.980198e+00	0.0	2.178218e+01	1.980198e+00	0.0	2.376238e+01	1.980198e+00	0.0	2.574257e+01	1.980198e+00	0.0	2.772277e+01	1.980198e+00	0.0	2.970297e+01	1.980198e+00	0.0	3.168317e+01	1.980198e+00	0.0	3.366337e+01	1.980198e+00	0.0	3.564356e+01	1.980198e+00	0.0	3.762376e+01	1.980198e+00	0.0	3.960396e+01	1.980198e+00	0.0	4.158416e+01	1.980198e+00	0.0	4.356436e+01	1.980198e+00	0.0	4.554455e+01	1.980198e+00	0.0	4.752475e+01	1.980198e+00	0.0	4.950495e+01	1.980198e+00	0.0	5.148515e+01	1.980198e+00	0.0	5.346535e+01	1.980198e+00	0.0	5.544554e+01	1.980198e+00	0.0	5.742574e+01	1.980198e+00	0.0	5.940594e+01	1.980198e+00	0.0	6.138614e+01	1.980198e+00	0.0	6.336634e+01	1.980198e+00	0.0	6.534653e+01	1.980198e+00	0.0	6.732673e+01	1.980198e+00	0.0	6.930693e+01	1.980198e+00	0.0	7.128713e+01	1.980198e+00	0.0	7.326733e+01	1.980198e+00	0.0	7.524752e+01	1.980198e+00	0.0	7.722772e+01	1.980198e+00	0.0	7.920792e+01	1.980198e+00	0.0	8.118812e+01	1.980198e+00	0.0	8.316832e+01	1.980198e+00	0.0	8.514851e+01	1.980198e+00	0.0	8.712871e+01	1.980198e+00	0.0	8.910891e+01	1.980198e+00	0.0	9.108911e+01	1.980198e+00	0.0	9.306931e+01	1.980198e+00	0.0	9.504950e+01	1.980198e+00	0.0	9.702970e+01	1.980198e+00	0.0	9.900990e+01	1.980198e+00	0.0	1.009901e+02	1.980198e+00	0.0	1.029703e+02	1.980198e+00	0.0	1.049505e+02	1.980198e+00	0.0	1.069307e+02	1.980198e+00	0.0	1.089109e+02	1.980198e+00	0.0	1.108911e+02	1.980198e+00	0.0	1.128713e+02	1.980198e+00	0.0	1.148515e+02	1.980198e+00	0.0	1.168317e+02	1.980198e+00	0.0	1.188119e+02	1.980198e+00	0.0	1.207921e+02	1.980198e+00	0.0	1.227723e+02	1.980198e+00	0.0	1.247525e+02	1.980198e+00	0.0	1.267327e+02	1.980198e+00	0.0	1.287129e+02	1.980198e+00	0.0	1.306931e+02	1.980198e+00	0.0	1.326733e+02	1.980198e+00	0.0	1.346535e+02	1.980198e+00	0.0	1.366337e+02	1.980198e+00	0.0	1.386139e+02	1.980198e+00	0.0	1.405941e+02	1.980198e+00	0.0	1.425743e+02	1.980198e+00	0.0	1.445545e+02	1.980198e+00	0.0	1.465347e+02	1.980198e+00	0.0	1.485149e+02	1.980198e+00	0.0	1.504950e+02	1.980198e+00	0.0	1.524752e+02	1.980198e+00	0.0	1.544554e+02	1.980198e+00	0.0	1.564356e+02	1.980198e+00	0.0	1.584158e+02	1.980198e+00	0.0	1.603960e+02	1.980198e+00	0.0	1.623762e+02	1.980198e+00	0.0	1.643564e+02	1.980198e+00	0.0	1.663366e+02	1.980198e+00	0.0	1.683168e+02	1.980198e+00	0.0	1.702970e+02	1.980198e+00	0.0	1.722772e+02	1.980198e+00	0.0	1.742574e+02	1.980198e+00	0.0	1.762376e+02	1.980198e+00	0.0	1.782178e+02	1.980198e+00	0.0	1.801980e+02	1.980198e+00	0.0	1.821782e+02	1.980198e+00	0.0	1.841584e+02	1.980198e+00	0.0	1.861386e+02	1.980198e+00	0.0	1.881188e+02	1.980198e+00	0.0	1.900990e+02	1.980198e+00	0.0	1.920792e+02	1.980198e+00	0.0	1.940594e+02	1.980198e+00	0.0	1.960396e+02	1.980198e+00	0.0	1.980198e+02	1.980198e+00	0.0	2.000000e+02	1.980198e+00	0.0	0.000000e+00	3.960396e+00	0.0	1.980198e+00	3.960396e+00	0.0	3.960396e+00	3.960396e+00	0.0	5.940594e+00	3.960396e+00	0.0	7.920792e+00	3.960396e+00	0.0	9.900990e+00	3.960396e+00	0.0	1.188119e+01	3.960396e+00	0.0	1.386139e+01	3.960396e+00	0.0	1.584158e+01	3.960396e+00	0.0	1.782178e+01	3.960396e+00	0.0	1.980198e+01	3.960396e+00	0.0	2.178218e+01	3.960396e+00	0.0	2.376238e+01	3.960396e+00	0.0	2.574257e+01	3.960396e+00	0.0	2.772277e+01	3.960396e+00	0.0	2.970297e+01	3.960396e+00	0.0	3.168317e+01	3.960396e+00	0.0	3.366337e+01	3.960396e+00	0.0	3.564356e+01	3.960396e+00	0.0	3.762376e+01	3.960396e+00	0.0	3.960396e+01	3.960396e+00	0.0	4.158416e+01	3.960396e+00	0.0	4.356436e+01	3.960396e+00	0.0	4.554455e+01	3.960396e+00	0.0	4.752475e+01	3.960396e+00	0.0	4.950495e+01	3.960396e+00	0.0	5.148515e+01	3.960396e+00	0.0	5.346535e+01	3.960396e+00	0.0	5.544554e+01	3.960396e+00	0.0	5.742574e+01	3.960396e+00	0.0	5.940594e+01	3.960396e+00	0.0	6.138614e+01	3.960396e+00	0.0	6.336634e+01	3.960396e+00	0.0	6.534653e+01	3.960396e+00	0.0	6.732673e+01	3.960396e+00	0.0	6.930693e+01	3.960396e+00	0.0	7.128713e+01	3.960396e+00	0.0	7.326733e+01	3.960396e+00	0.0	7.524752e+01	3.960396e+00	0.0	7.722772e+01	3.960396e+00	0.0	7.920792e+01	3.960396e+00	0.0	8.118812e+01	3.960396e+00	0.0	8.316832e+01	3.960396e+00	0.0	8.514851e+01	3.960396e+00	0.0	8.712871e+01	3.960396e+00	0.0	8.910891e+01	3.960396e+00	0.0	9.108911e+01	3.960396e+00	0.0	9.306931e+01	3.960396e+00	0.0	9.504950e+01	3.960396e+00	0.0	9.702970e+01	3.960396e+00	0.0	9.900990e+01	3.960396e+00	0.0	1.009901e+02	3.960396e+00	0.0	1.029703e+02	3.960396e+00	0.0	1.049505e+02	3.960396e+00	0.0	1.069307e+02	3.960396e+00	0.0	1.089109e+02	3.960396e+00	0.0	1.108911e+02	3.960396e+00	0.0	1.128713e+02	3.960396e+00	0.0	1.148515e+02	3.960396e+00	0.0	1.168317e+02	3.960396e+00	0.0	1.188119e+02	3.960396e+00	0.0	1.207921e+02	3.960396e+00	0.0	1.227723e+02	3.960396e+00	0.0	1.247525e+02	3.960396e+00	0.0	1.267327e+02	3.960396e+00	0.0	1.287129e+02	3.960396e+00	0.0	1.306931e+02	3.960396e+00	0.0	1.326733e+02	3.960396e+00	0.0	1.346535e+02	3.960396e+00	0.0	1.366337e+02	3.960396e+00	0.0	1.386139e+02	3.960396e+00	0.0	1.405941e+02	3.960396e+00	0.0	1.425743e+02	3.960396e+00	0.0	1.445545e+02	3.960396e+00	0.0	1.465347e+02	3.960396e+00	0.0	1.485149e+02	3.960396e+00	0.0	1.504950e+02	3.960396e+00	0.0	1.524752e+02	3.960396e+00	0.0	1.544554e+02	3.960396e+00	0.0	1.564356e+02	3.960396e+00	0.0	1.584158e+02	3.960396e+00	0.0	1.603960e+02	3.960396e+00	0.0	1.623762e+02	3.960396e+00	0.0	1.643564e+02	3.960396e+00	0.0	1.663366e+02	3.960396e+00	0.0	1.683168e+02	3.960396e+00	0.0	1.702970e+02	3.960396e+00	0.0	1.722772e+02	3.960396e+00	0.0	1.742574e+02	3.960396e+00	0.0	1.762376e+02	3.960396e+00	0.0	1.782178e+02	3.960396e+00	0.0	1.801980e+02	3.960396e+00	0.0	1.821782e+02	3.960396e+00	0.0	1.841584e+02	3.960396e+00	0.0	1.861386e+02	3.960396e+00	0.0	1.881188e+02	3.960396e+00	0.0	1.900990e+02	3.960396e+00	0.0	1.920792e+02	3.960396e+00	0.0	1.940594e+02	3.960396e+00	0.0	1.960396e+02	3.960396e+00	0.0	1.980198e+02	3.960396e+00	0.0	2.000000e+02	3.960396e+00	0.0	0.000000e+00	5.940594e+00	0.0	1.980198e+00	5.940594e+00	0.0	3.960396e+00	5.940594e+00	0.0	5.940594e+00	5.940594e+00	0.0	7.920792e+00	5.940594e+00	0.0	9.900990e+00	5.940594e+00	0.0	1.188119e+01	5.940594e+00	0.0	1.386139e+01	5.940594e+00	0.0	1.584158e+01	5.940594e+00	0.0	1.782178e+01	5.940594e+00	0.0	1.980198e+01	5.940594e+00	0.0	2.178218e+01	5.940594e+00	0.0	2.376238e+01	5.940594e+00	0.0	2.574257e+01	5.940594e+00	0.0	2.772277e+01	5.940594e+00	0.0	2.970297e+01	5.940594e+00	0.0	3.168317e+01	5.940594e+00	0.0	3.366337e+01	5.940594e+00	0.0	3.564356e+01	5.940594e+00	0.0	3.762376e+01	5.940594e+00	0.0	3.960396e+01	5.940594e+00	0.0	4.158416e+01	5.940594e+00	0.0	4.356436e+01	5.940594e+00	0.0	4.554455e+01	5.940594
[...]
POINT_DATA 10404

SCALARS Height double 1
LOOKUP_TABLE default
4.000000e+00	4.000000e+00	4.000000e+00	4.000000e+00	4.000000e+00	4.000000e+00	4.000000e+00	4.000000e+00	4.000000e+00	4.000000e+00	4.000000e+00	4.000000e+00	4.000000e+00	4.000000e+00	4.000000e+00	4.000000e+00	4.000000e+00	4.000000e+00	4.000000e+00	4.000000e+00	4.000000e+00	4.000000e+00	4.000000e+00	4.000000e+00	4.000000e+00	4.000000e+00	4.000000e+00	4.000000e+00	4.000000e+00	4.000000e+00	4.000000e+00	4.000000e+00	4.000000e+00	4.000000e+00	3.999998e+00	3.999990e+00	3.999945e+00	3.999728e+00	3.998733e+00	3.994394e+00	3.975871e+00	3.898567e+00	3.728178e+00	3.513497e+00	3.279870e+00	3.031141e+00	2.773110e+00	2.512319e+00	2.271041e+00	2.159353e+00	2.111789e+00	2.090824e+00	2.083398e+00	2.073969e+00	2.076780e+00	2.092637e+00	2.131583e+00	2.168930e+00	2.136500e+00	1.787715e+00	1.166572e+00	1.005287e+00	1.000114e+00	1.000002e+00	1.000000e+00	1.000000e+00	1.000000e+00	1.000000e+00	1.000000e+00	1.000000e+00	1.000000e+00	1.000000e+00	1.000000e+00	1.000000e+00	1.000000e+00	1.000000e+00	1.000000e+00	1.000000e+00	1.000000e+00	1.000000e+00	1.000000e+00	1.000000e+00	1.000000e+00	1.000000e+00	1.000000e+00	1.000000e+00	1.000000e+00	1.000000e+00	1.000000e+00	1.000000e+00	1.000000e+00	1.000000e+00	1.000000e+00	1.000000e+00	1.000000e+00	1.000000e+00	1.000000e+00	1.000000e+00	1.000000e+00	1.000000e+00	1.000000e+00	1.000000e+00	4.000000e+00	4.000000e+00	4.000000e+00	4.000000e+00	4.000000e+00	4.000000e+00	4.000000e+00	4.000000e+00	4.000000e+00	4.000000e+00	4.000000e+00	4.000000e+00	4.000000e+00	4.000000e+00	4.000000e+00	4.000000e+00	4.000000e+00	4.000000e+00	4.000000e+00	4.000000e+00	4.000000e+00	4.000000e+00	4.000000e+00	4.000000e+00	4.000000e+00	4.000000e+00	4.000000e+00	4.000000e+00	4.000000e+00	4.000000e+00	4.000000e+00	4.000000e+00	4.000000e+00	4.000000e+00	4.000000e+00	3.999997e+00	3.999984e+00	3.999909e+00	3.999521e+00	3.997509e+00	3.985868e+00	3.904838e+00	3.718815e+00	3.504456e+00	3.270915e+00	3.023309e+00	2.768490e+00	2.510061e+00	2.270551e+00	2.158157e+00	2.110000e+00	2.091784e+00	2.091439e+00	2.088239e+00	2.090522e+00	2.103618e+00	2.127992e+00	2.158025e+00	2.147761e+00	1.799030e+00	1.106984e+00	1.000976e+00	1.000011e+00	1.000000e+00	1.000000e+00	1.000000e+00	1.000000e+00	1.000000e+00	1.000000e+00	1.000000e+00	1.000000e+00	1.000000e+00	1.000000e+00	1.000000e+00	1.000000e+00	1.000000e+00	1.000000e+00	1.000000e+00	1.000000e+00	1.000000e+00	1.000000e+00	1.000000e+00	1.000000e+00	1.000000e+00	1.000000e+00	1.000000e+00	1.000000e+00	1.000000e+00	1.000000e+00	1.000000e+00	1.000000e+00	1.000000e+00	1.000000e+00	1.000000e+00	1.000000e+00	1.000000e+00	1.000000e+00	1.000000e+00	1.000000e+00	1.000000e+00	1.000000e+00	1.000000e+00	4.000000e+00	4.000000e+00	4.000000e+00	4.000000e+00	4.000000e+00	4.000000e+00	4.000000e+00	4.000000e+00	4.000000e+00	4.000000e+00	4.000000e+00	4.000000e+00	4.000000e+00	4.000000e+00	4.000000e+00	4.000000e+00	4.000000e+00	4.000000e+00	4.000000e+00	4.000000e+00	4.000000e+00	4.000000e+00	4.000000e+00	4.000000e+00	4.000000e+00	4.000000e+00	4.000000e+00	4.000000e+00	4.000000e+00	4.000000e+00	4.000000e+00	4.000000e+00	4.000000e+00	4.000000e+00	4.000000e+00	4.000000e+00	3.999997e+00	3.999976e+00	3.999826e+00	3.998732e+00	3.989987e+00	3.911480e+00	3.706987e+00	3.479885e+00	3.239200e+00	2.988600e+00	2.734584e+00	2.481473e+00	2.239679e+00	2.123795e+00	2.079533e+00	2.069962e+00	2.086958e+00	2.091210e+00	2.094658e+00	2.096458e+00	2.096512e+00	2.094559e+00	2.083715e+00	1.781938e+00	1.113381e+00	1.001061e+00	1.000008e+00	1.000000e+00	1.000000e+00	1.000000e+00	1.000000e+00	1.000000e+00	1.000000e+00	1.000000e+00	1.000000e+00	1.000000e+00	1.000000e+00	1.000000e+00	1.000000e+00	1.000000e+00	1.000000e+00	1.000000e+00	1.000000e+00	1.000000e+00	1.000000e+00	1.000000e+00	1.000000e+00	1.000000e+00	1.000000e+00	1.000000e+00	1.000000e+00	1.000000e+00	1.000000e+00	1.000000e+00	1.000000e+00	1.000000e+00	1.000000e+00	1.000000e+00	1.000000e+00	1.000000e+00	1.000000e+00	1.000000e+00	1.000000e+00	1.000000e+00	1.000000e+00	1.000000e+00	4.000000e+00	4.000000e+00	4.000000e+00	4.000000e+00	4.000000e+00	4.000000e+00	4.000000e+00	4.000000e+00	4.000000e+00	4.000000e+00	4.000000e+00	4.000000e+00	4.000000e+00	4.000000e+00	4.000000e+00	4.000000e+00	4.000000e+00	4.000000e+00	4.000000e+00	4.000000e+00	4.000000e+00	4.000000e+00	4.000000e+00	4.000000e+00	4.000000e+00	4.000000e+00	4.000000e+00	4.000000e+00	4.000000e+00	4.000000e+00	4.000000e+00	4.000000e+00	4.000000e+00	4.000000e+00	4.000000e+00	4.000000e+00	3.999999e+00	3.999993e+00	3.999924e+00	3.999253e+00	3.992447e+00	3.919326e+00	3.693577e+00	3.445488e+00	3.200263e+00	2.956208e+00	2.711406e+00	2.463390e+00	2.226422e+00	2.116803e+00	2.079998e+00	2.076563e+00	2.105204e+00	2.117291e+00	2.122364e+00	2.114159e+00	2.101389e+00	2.085406e+00	2.037109e+00	1.703987e+00	1.097671e+00	1.000918e+00	1.000008e+00	1.000000e+00	1.000000e+00	1.000000e+00	1.000000e+00	1.000000e+00	1.000000e+00	1.000000e+00	1.000000e+00	1.000000e+00	1.000000e+00	1.000000e+00	1.000000e+00	1.000000e+00	1.000000e+00	1.000000e+00	1.000000e+00	1.000000e+00	1.000000e+00	1.000000e+00	1.000000e+00	1.000000e+00	1.000000e+00	1.000000e+00	1.000000e+00	1.000000e+00	1.000000e+00	1.000000e+00	1.000000e+00	1.000000e+00	1.000000e+00	1.000000e+00	1.000000e+00	1.000000e+00	1.000000e+00	1.000000e+00	1.000000e+00	1.000000e+00	1.000000e+00	1.000000e+00	4.000000e+00	4.000000e+00	4.000000e+00	4.000000e+00	4.000000e+00	4.000000e+00	4.000000e+00	4.000000e+00	4.000000e+00	4.000000e+00	4.000000e+00	4.000000e+00	4.000000e+00	4.000000e+00	4.000000e+00	4.000000e+00	4.000000e+00	4.000000e+00	4.000000e+00	4.000000e+00	4.000000e+00	4.000000e+00	4.000000e+00	4.000000e+00	4.000000e+00	4.000000e+00	4.000000e+00	4.000000e+00	4.000000e+00	4.000000e+00	4.000000e+00	4.000000e+00	4.000000e+00	4.000000e+00	4.000000e+00	4.000000e+00	4.000000e+00	3.999995e+00	3.999938e+00	3.999320e+00	3.992475e+00	3.913702e+00	3.672761e+00	3.416387e+00	3.165907e+00	2.925369e+00	2.688325e+00	2.443930e+00	2.212072e+00	2.113952e+00	2.083260e+00	2.088060e+00	2.124906e+00	2.136416e+00	2.142669e+00	2.143521e+00	2.134189e+00	2.107049e+00	2.029981e+00	1.611786e+00	1.052608e+00	1.000521e+00	1.000005e+00	1.000000e+00	1.000000e+00	1.000000e+00	1.000000e+00	1.000000e+00	1.000000e+00	1.000000e+00	1.000000e+00	1.000000e+00	1.000000e+00	1.000000e+00	1.000000e+00	1.000000e+00	1.000000e+00	1.000000e+00	1.000000e+00	1.000000e+00	1.000000e+00	1.000000e+00	1.000000e+00	1.000000e+00	1.000000e+00	1.000000e+00	1.000000e+00	1.000000e+00	1.000000e+00	1.000000e+00	1.000000e+00	1.000000e+00	1.000000e+00	1.000000e+00	1.000000e+00	1.000000e+00	1.000000e+00	1.000000e+00	1.000000e+00	1.000000e+00	1.000000e+00	1.000000e+00	4.000000e+00	4.000000e+00	4.000000e+00	4.000000e+00	4.000000e+00	4.000000e+00	4.000000e+00	4.000000e+00	4.000000e+00	4.000000e+00	4.000000e+00	4.000000e+00	4.000000e+00	4.000000e+00	4.000000e+00	4.000000e+00	4.000000e+00	4.000000e+00	4.000000e+00	4.000000e+00	4.000000e+00	4.000000e+00	4.000000e+00	4.000000e+00	4.000000e+00	4.000000e+00	4.000000e+00	4.000000e+00	4.000000e+00	4.000000e+00	4.000000e+00	4.000000e+00	4.000000e+00	4.000000e+00	4.000000e+00	4.000000e+00	3.999999e+00	3.999993e+00	3.999913e+00	3.999024e+00	3.989331e+00	3.890513e+00	3.651221e+00	3.400071e+00	3.149511e+00	2.902661e+00	2.658096e+00	2.409023e+00	2.189135e+00	2.102501e+00	2.081842e+00	2.095898e+00	2.132876e+00	2.141585e+00	2.147005e+00	2.151534e+00	2.152531e+00	2.143902e+00	2.057546e+00	1.503381e+00	1.019038e+00	1.000254e+00	1.000002e+00	1.000000e+00	1.000000e+00	1.000000e+00	1.000000e+00	1.000000e+00	1.000000e+00	1.000000e+00	1.000000e+00	1.000000e+00	1.000000e+00	1.000000e+00	1.000000e+00	1.000000e+00	1.000000e+00	1.000000e+00	1.000000e+00	1.000000e+00	1.000000e+00	1.000000e+00	1.000000e+00	1.000000e+00	1.000000e+00	1.000000e+00	1.000000e+00	1.000000e+00	1.000000e+00	1.000000e+00	1.000000e+00	1.000000e+00	1.000000e+00	1.000000e+00	1.000000e+00	1.000000e+00	1.000000e+00	1.000000e+00	1.000000e+00	1.000000e+00	1.000000e+00	1.000000e+00	4.000000e+00	4.000000e+00	4.000000e+00	4.000000e+00	4.000000e+00	4.000000e+00	4.000000e+00	4.000000e+00	4.000000e+00	4.000000e+00	4.000000e+00	4.000000e+00	4.000000e+00	4.000000e+00	4.000000e+00	4.000000e+00	4.000000e+00	4.000000e+00	4.000000e+00	4.000000e+00	4.000000e+00	4.000000e+00	4.000000e+00	4.000000e+00	4.000000e+00	4.000000e+00	4.000000e+00	4.000000e+00	4.000000e+00	4.000000e+00	4.000000e+00	4.000000e+00	4.000000e+00	4.000000e+00	4.000000e+00	4.000000e+00	3.999999e+00	3.999987e+00	3.999852e+00	3.998417e+00	3.983630e+00	3.855777e+00	3.628192e+00	3.382622e+00	3.128669e+00	2.874673e+00	2.625462e+00	2.373235e+00	2.165023e+00	2.085695e+00	2.065006e+00	2.082784e+00	2.111845e+00	2.113443e+00	2.119035e+00	2.132559e+00	2.154086e+00	2.167622e+00	2.067440e+00	1.418035e+00	1.011599e+00	1.000119e+00	1.000001e+00	1.000000e+00	1.000000e+00	1.000000e+00	1.000000e+00	1.000000e+00	1.000000e+00	1.000000e+00	1.000000e+00	1.000000e+00	1.000000e+00	1.000000e+00	1.000000e+00	1.000000e+00	1.000000e+00	1.000000e+00	1.000000e+00	1.000000e+00	1.000000e+00	1.000000e+00	1.000000e+00	1.000000e+00	1.000000e+00	1.000000e+00	1.000000e+00	1.000000e+00	1.000000e+00	1.000000e+00	1.000000e+00	1.000000e+00	1.000000e+00	1.000000e+00	1.000000e+00	1.000000e+00	1.000000e+00	1.000000e+00	1.000000e+00	1.000000e+00	1.000000e+00	1.000000e+00	4.000000e+00	4.000000e+00	4.000000e+00	4.000000e+00	4.000000e+00	4.000000e+00	4.000000e+00	4.000000e+00	4.000000e+00	4.000000e+00	4.000000e+00	4.000000e+00	4.000000e+00	4.000000e+00	4.000000e+00	4.000000e+00	4.000000e+00	4.000000e+00	4.000000e+00	4.000000e+00	4.000000e+00	4.000000e+00	4.000000e+00	4.000000e+00	4.000000e+00	4.000000e+00	4.000000e+00	4.000000e+00	4.000000e+00	4.000000e+00	4.000000e+00	4.000000e+00	4.000000e+00	4.000000e+00	4.000000e+00	4.000000e+00	3.999998e+00	3.999977e+00	3.999751e+00	3.997425e+00	3.973737e+00	3.814934e+00	3.592092e+00	3.351906e+00	3.098793e+00	2.843481e+00	2.591897e+00	2.339997e+00	2.143619e+00	2.067157e+00	2.043428e+00	2.052496e+00	2.077477e+00	2.077910e+00	2.085424e+00	2.090151e+00	2.109849e+00	2.132578e+00	2.039219e+00	1.380868e+00	1.009183e+00	1.000081e+00	1.000001e+00	1.000000e+00	1.000000e+00	1.000000e+00	1.000000e+00	1.000000e+00	1.000000e+00	1.000000e+00	1.000000e+00	1.000000e+00	1.000000e+00	1.000000e+00	1.000000e+00	1.000000e+00	1.000000e+00	1.000000e+00	1.000000e+00	1.000000e+00	1.000000e+00	1.000000e+00	1.000000e+00	1.000000e+00	1.000000e+00	1.000000e+00	1.000000e+00	1.000000e+00	1.000000e+00	1.000000e+00	1.000000e+00	1.000000e+00	1.000000e+00	1.000000e+00	1.000000e+00	1.000000e+00	1.000000e+00	1.000000e+00	1.000000e+00	1.000000e+00	1.000000e+00	1.000000e+00	4.000000e+00	4.000000e+00	4.000000e+00	4.000000e+00	4.000000e+00	4.000000e+00	4.000000e+00	4.000000e+00	4.000000e+00	4.000000e+00	4.000000e+00	4.000000e+00	4.000000e+00	4.000000e+00	4.000000e+00	4.000000e+00	4.000000e+00	4.000000e+00	4.000000e+00	4.000000e+00	4.000000e+00	4.000000e+00	4.000000e+00	4.000000e+00	4.000000e+00	4.000000e+00	4.000000e+00	4.000000e+00	4.000000e+00	4.000000e+00	4.000000e+00	4.000000e+00	4.000000e+00	4.000000e+00	4.000000e+00	4.000000e+00	3.999997e+00	3.999964e+00	3.999609e+00	3.996012e+00	3.955084e+00	3.768806e+00	3.542795e+00	3.306849e+00	3.059564e+00	2.809964e+00	2.561426e+00	2.314453e+00	2.129553e+00	2.052446e+00	2.026986e+00	2.033672e+00	2.064161e+00	2.073483e+00	2.079855e+00	2.083623e+00	2.090976e+00	2.092439e+00	1.983600e+00	1.349681e+00	1.008310e+00	1.000072e+00	1.000001e+00	1.000000e+00	1.000000e+00	1.000000e+00	1.000000e+00	1.000000e+00	1.000000e+00	1.000000e+00	1.000000e+00	1.000000e+00	1.000000e+00	1.000000e+00	1.000000e+00	1.000000e+00	1.000000e+00	1.000000e+00	1.000000e+00	1.000000e+00	1.000000e+00	1.000000e+00	1.000000e+00	1.000000e+00	1.000000e+00	1.000000e+00	1.000000e+00	1.000000e+00	1.000000e+00	1.000000e+00	1.000000e+00	1.000000e+00	1.000000e+00	1.000000e+00	1.000000e+00	1.000000e+00	1.000000e+00	1.000000e+00	1.000000e+00	1.000000e+00	1.000000e+00	1.000000e+00	4.000000e+00	4.000000e+00	4.000000e+00	4.000000e+00	4.000000e+00	4.000000e+00	4.000000e+00	4.000000e+00	4.000000e+00	4.000000e+00	4.000000e+00	4.000000e+00	4.000000e+00	4.000000e+00	4.000000e+00	4.000000e+00	4.000000e+00	4.000000e+00	4.000000e+00	4.000000e+00	4.000000e+00	4.000000e+00	4.000000e+00	4.000000e+00	4.000000e+00	4.000000e+00	4.000000e+00	4.000000e+00	4.000000e+00	4.000000e+00	4.000000e+00	4.000000e+00	4.000000e+00	4.000000e+00	4.000000e+00	4.000000e+00	3.999996e+00	3.999948e+00	3.999429e+00	3.993748e+00	3.928965e+00	3.714918e+00	3.480935e+00	3.246934e+00	3.013459e+00	2.771316e+00	2.530787e+00	2.295226e+00	2.125989e+00	2.053641e+00	2.032831e+00	2.037717e+00	2.064889e+00	2.075286e+00	2.077350e+00	2.083164e+00	2.083948e+00	2.068880e+00	1.926071e+00	1.276200e+00	1.005993e+00	1.000050e+00	1.000000e+00	1.000000e+00	1.000000e+00	1.000000e+00	1.000000e+00	1.000000e+00	1.000000e+00	1.000000e+00	1.000000e+00	1.000000e+00	1.000000e+00	1.000000e+00	1.000000e+00	1.000000e+00	1.000000e+00	1.000000e+00	1.000000e+00	1.000000e+00	1.000000e+00	1.000000e+00	1.000000e+00	1.000000e+00	1.000000e+00	1.000000e+00	1.000000e+00	1.000000e+00	1.000000e+00	1.000000e+00	1.000000e+00	1.000000e+00	1.000000e+00	1.000000e+00	1.000000e+00	1.000000e+00	1.000000e+00	1.000000e+00	1.000000e+00	1.000000e+00	1.000000e+00	1.000000e+00	4.000000e+00	4.000000e+00	4.000000e+00	4.000000e+00	4.000000e+00	4.000000e+00	4.000000e+00	4.000000e+00	4.000000e+00	4.000000e+00	4.000000e+00	4.000000e+00	4.000000e+00	4.000000e+00	4.000000e+00	4.000000e+00	4.000000e+00	4.000000e+00	4.000000e+00	4.000000e+00	4.000000e+00	4.000000e+00	4.000000e+00	4.000000e+00	4.000000e+00	4.000000e+00	4.000000e+00	4.000000e+00	4.000000e+00	4.000000e+00	4.000000e+00	4.000000e+00	4.000000e+00	4.000000e+00	4.000000e+00	4.000000e+00	3.999994e+00	3.999925e+00	3.999133e+00	3.989946e+00	3.890787e+00	3.655789e+00	3.415080e+00	3.179844e+00	2.951350e+00	2.723362e+00	2.489657e+00	2.275597e+00	2.139104e+00	2.076073e+00	2.053843e+00	2.054760e+00	2.068814e+00	2.073244e+00	2.076941e+00	2.085568e+00	2.088224e+00	2.069757e+00	1.857111e+00	1.181329e+00	1.002662e+00	1.000019e+00	1.000000e+00	1.000000e+00	1.000000e+00	1.000000e+00	1.000000e+00	1.000000e+00	1.000000e+00	1.000000e+00	1.000000e+00	1.000000e+00	1.000000e+00	1.000000e+00	1.000000e+00	1.000000e+00	1.000000e+00	1.000000e+00	1.000000e+00	1.000000e+00	1.000000e+00	1.000000e+00	1.000000e+00	1.000000e+00	1.000000e+00	1.000000e+00	1.000000e+00	1.000000e+00	1.000000e+00	1.000000e+00	1.000000e+00	1.000000e+00	1.000000e+00	1.000000e+00	1.000000e+00	1.000000e+00	1.000000e+00	1.000000e+00	1.000000e+00	1.000000e+00	1.000000e+00	1.000000e+00	4.000000e+00	4.000000e+00	4.000000e+00	4.000000e+00	4.000000e+00	4.000000e+00	4.000000e+00	4.000000e+00	4.000000e+00	4.000000e+00	4.000000e+00	4.000000e+00	4.000000e+00	4.000000e+00	4.000000e+00	4.000000e+00	4.000000e+00	4.000000e+00	4.000000e+00	4.000000e+00	4.000000e+00	4.000000e+00	4.000000e+00	4.000000e+00	4.000000e+00	4.000000e+00	4.000000e+00	4.000000e+00	4.000000e+00	4.000000e+00	4.000000e+00	4.000000e+00	4.000000e+00	4.000000e+00	4.000000e+00	3.999999e+00	3.999989e+00	3.999862e+00	3.998385e+00	3.981991e+00	3.832777e+00	3.593453e+00	3.348508e+00	3.108861e+00	2.877391e+00	2.654436e+00	2.433187e+00	2.249597e+00	2.156001e+00	2.111734e+00	2.094573e+00	2.090167e+00	2.090349e+00	2.084346e+00	2.085729e+00	2.093489e+00	2.093703e+00	2.078627e+00	1.741880e+00	1.088804e+00	1.000622e+00	1.000005e+00	1.000000e+00	1.000000e+00	1.000000e+00	1.000000e+00	1.000000e+00	1.000000e+00	1.000000e+00	1.000000e+00	1.000000e+00	1.000000e+00	1.000000e+00	1.000000e+00	1.000000e+00	1.000000e+00	1.000000e+00	1.000000e+00	1.000000e+00	1.000000e+00	1.000000e+00	1.000000e+00	1.000000e+00	1.000000e+00	1.000000e+00	1.000000e+00	1.000000e+00	1.000000e+00	1.000000e+00	1.000000e+00	1.000000e+00	1.000000e+00	1.000000e+00	1.000000e+00	1.000000e+00	1.000000e+00	1.000000e+00	1.000000e+00	1.000000e+00	1.000000e+00	1.000000e+00	1.000000e+00	4.000000e+00	4.000000e+00	4.000000e+00	4.000000e+00	4.000000e+00	4.000000e+00	4.000000e+00	4.000000e+00	4.000000e+00	4.000000e+00	4.000000e+00	4.000000e+00	4.000000e+00	4.000000e+00	4.000000e+00	4.000000e+00	4.000000e+00	4.000000e+00	4.000000e+00	4.000000e+00	4.000000e+00	4.000000e+00	4.000000e+00	4.000000e+00	4.000000e+00	4.000000e+00	4.000000e+00	4.000000e+00	4.000000e+00	4.000000e+00	4.000000e+00	4.000000e+00	4.000000e+00	4.000000e+00	4.000000e+00	3.999998e+00	3.999974e+00	3.999700e+00	3.996654e+00	3.959283e+00	3.764279e+00	3.526391e+00	3.279661e+00	3.035212e+00	2.799460e+00	2.571589e+00	2.354341e+00	2.212388e+00	2.154900e+00	2.135576e+00	2.135872e+00	2.129460e+00	2.123307e+00	2.114847e+00	2.112352e+00	2.115560e+00	2.122328e+00	2.078564e+00	1.568246e+00	1.019198e+00	1.000195e+00	1.000001e+00	1.000000e+00	1.000000e+00	1.000000e+00	1.000000e+00	1.000000e+00	1.000000e+00	1.000000e+00	1.000000e+00	1.000000e+00	1.000000e+00	1.000000e+00	1.000000e+00	1.000000e+00	1.000000e+00	1.000000e+00	1.000000e+00	1.000000e+00	1.000000e+00	1.000000e+00	1.000000e+00	1.000000e+00	1.000000e+00	1.000000e+00	1.000000e+00	1.000000e+00	1.000000e+00	1.000000e+00	1.000000e+00	1.000000e+00	1.000000e+00	1.000000e+00	1.000000e+00	1.000000e+00	1.000000e+00	1.000000e+00	1.000000e+00	1.000000e+00	1.000000e+00	1.000000e+00	1.000000e+00	4.000000e+00	4.000000e+00	4.000000e+00	4.000000e+00	4.000000e+00	4.000000e+00	4.000000e+00	4.000000e+00	4.000000e+00	4.000000e+00	4.000000e+00	4.000000e+00	4.000000e+00	4.000000e+00	4.000000e+00	4.000000e+00	4.000000e+00	4.000000e+00	4.000000e+00	4.000000e+00	4.000000e+00	4.000000e+00	4.000000e+00	4.000000e+00	4.000000e+00	4.000000e+00	4.000000e+00	4.000000e+00	4.000000e+00	4.000000e+00	4.000000e+00	4.000000e+00	4.000000e+00	4.000000e+00	4.000000e+00	3.999995e+00	3.999942e+00	3.999335e+00	3.992329e+00	3.912437e+00	3.687429e+00	3.448771e+00	3.206619e+00	2.962077e+00	2.722882e+00	2.488705e+00	2.261083e+00	2.152449e+00	2.123657e+00	2.119624e+00	2.149772e+00	2.152429e+00	2.150461e+00	2.150983e+00	2.157726e+00	2.165347e+00	2.167012e+00	2.043442e+00	1.321950e+00	1.006293e+00	1.000048e+00	1.000000e+00	1.000000e+00	1.000000e+00	1.000000e+00	1.000000e+00	1.000000e+00	1.000000e+00	1.000000e+00	1.000000e+00	1.000000e+00	1.000000e+00	1.000000e+00	1.000000e+00	1.000000e+00	1.000000e+00	1.000000e+00	1.000000e+00	1.000000e+00	1.000000e+00	1.000000e+00	1.000000e+00	1.000000e+00	1.000000e+00	1.000000e+00	1.000000e+00	1.000000e+00	1.000000e+00	1.000000e+00	1.000000e+00	1.000000e+00	1.000000e+00	1.000000e+00	1.000000e+00	1.000000e+00	1.000000e+00	1.000000e+00	1.000000e+00	1.000000e+00	1.000000e+00	1.000000e+00	1.000000e+00	4.000000e+00	4.000000e+00	4.000000e+00	4.000000e+00	4.000000e+00	4.000000e+00	4.000000e+00	4.000000e+00	4.000000e+00	4.000000e+00	4.000000e+00	4.000000e+00	4.000000e+00	4.000000e+00	4.000000e+00	4.000000e+00	4.000000e+00	4.000000e+00	4.000000e+00	4.000000e+00	4.000000e+00	4.000000e+00	4.000000e+00	4.000000e+00	4.000000e+00	4.000000e+00	4.000000e+00	4.000000e+00	4.000000e+00	4.000000e+00	4.000000e+00	4.000000e+00	4.000000e+00	4.000000e+00	3.999999e+00	3.999989e+00	3.999871e+00	3.998485e+00	3.982926e+00	3.835857e+00	3.598985e+00	3.359234e+00	3.124188e+00	2.889793e+00	2.653110e+00	2.420509e+00	2.200966e+00	2.094901e+00	2.072725e+00	2.083917e+00	2.122395e+00	2.133954e+00	2.139355e+00	2.149124e+00	2.162825e+00	2.175842e+00	2.173981e+00	1.903831e+00	1.156060e+00	1.001807e+00	1.000012e+00	1.000000e+00	1.000000e+00	1.000000e+00	1.000000e+00	1.000000e+00	1.000000e+00	1.000000e+00	1.000000e+00	1.000000e+00	1.000000e+00	1.000000e+00	1.000000e+00	1.000000e+00	1.000000e+00	1.000000e+00	1.000000e+00	1.000000e+00	1.000000e+00	1.000000e+00	1.000000e+00	1.000000e+00	1.000000e+00	1.000000e+00	1.000000e+00	1.000000e+00	1.000000e+00	1.000000e+00	1.000000e+00	1.000000e+00	1.000000e+00	1.000000e+00	1.000000e+00	1.000000e+00	1.000000e+00	1.000000e+00	1.000000e+00	1.000000e+00	1.000000e+00	1.000000e+00	1.000000e+00	1.000000e+00	4.000000e+00	4.000000e+00	4.000000e+00	4.000000