# vtk DataFile Version 3.0
vtk output
ASCII
DATASET STRUCTURED_GRID
DIMENSIONS 102 102 1
POINTS 10404 double
0.000000e+00	0.000000e+00	0.0	1.980198e+00	0.000000e+00	0.0	3.960396e+00	0.000000e+00	0.0	5.940594e+00	0.000000e+00	0.0	7.920792e+00	0.000000e+00	0.0	9.900990e+00	0.000000e+00	0.0	1.188119e+01	0.000000e+00	0.0	1.386139e+01	0.000000e+00	0.0	1.584158e+01	0.000000e+00	0.0	1.782178e+01	0.000000e+00	0.0	1.980198e+01	0.000000e+00	0.0	2.178218e+01	0.000000e+00	0.0	2.376238e+01	0.000000e+00	0.0	2.574257e+01	0.000000e+00	0.0	2.772277e+01	0.000000e+00	0.0	2.970297e+01	0.000000e+00	0.0	3.168317e+01	0.000000e+00	0.0	3.366337e+01	0.000000e+00	0.0	3.564356e+01	0.000000e+00	0.0	3.762376e+01	0.000000e+00	0.0	3.960396e+01	0.000000e+00	0.0	4.158416e+01	0.000000e+00	0.0	4.356436e+01	0.000000e+00	0.0	4.554455e+01	0.000000e+00	0.0	4.752475e+01	0.000000e+00	0.0	4.950495e+01	0.000000e+00	0.0	5.148515e+01	0.000000e+00	0.0	5.346535e+01	0.000000e+00	0.0	5.544554e+01	0.000000e+00	0.0	5.742574e+01	0.000000e+00	0.0	5.940594e+01	0.000000e+00	0.0	6.138614e+01	0.000000e+00	0.0	6.336634e+01	0.000000e+00	0.0	6.534653e+01	0.000000e+00	0.0	6.732673e+01	0.000000e+00	0.0	6.930693e+01	0.000000e+00	0.0	7.128713e+01	0.000000e+00	0.0	7.326733e+01	0.000000e+00	0.0	7.524752e+01	0.000000e+00	0.0	7.722772e+01	0.000000e+00	0.0	7.920792e+01	0.000000e+00	0.0	8.118812e+01	0.000000e+00	0.0	8.316832e+01	0.000000e+00	0.0	8.514851e+01	0.000000e+00	0.0	8.712871e+01	0.000000e+00	0.0	8.910891e+01	0.000000e+00	0.0	9.108911e+01	0.000000e+00	0.0	9.306931e+01	0.000000e+00	0.0	9.504950e+01	0.000000e+00	0.0	9.702970e+01	0.000000e+00	0.0	9.900990e+01	0.000000e+00	0.0	1.009901e+02	0.000000e+00	0.0	1.029703e+02	0.000000e+00	0.0	1.049505e+02	0.000000e+00	0.0	1.069307e+02	0.000000e+00	0.0	1.089109e+02	0.000000e+00	0.0	1.108911e+02	0.000000e+00	0.0	1.128713e+02	0.000000e+00	0.0	1.148515e+02	0.000000e+00	0.0	1.168317e+02	0.000000e+00	0.0	1.188119e+02	0.000000e+00	0.0	1.207921e+02	0.000000e+00	0.0	1.227723e+02	0.000000e+00	0.0	1.247525e+02	0.000000e+00	0.0	1.267327e+02	0.000000e+00	0.0	1.287129e+02	0.000000e+00	0.0	1.306931e+02	0.000000e+00	0.0	1.326733e+02	0.000000e+00	0.0	1.346535e+02	0.000000e+00	0.0	1.366337e+02	0.000000e+00	0.0	1.386139e+02	0.000000e+00	0.0	1.405941e+02	0.000000e+00	0.0	1.425743e+02	0.000000e+00	0.0	1.445545e+02	0.000000e+00	0.0	1.465347e+02	0.000000e+00	0.0	1.485149e+02	0.000000e+00	0.0	1.504950e+02	0.000000e+00	0.0	1.524752e+02	0.000000e+00	0.0	1.544554e+02	0.000000e+00	0.0	1.564356e+02	0.000000e+00	0.0	1.584158e+02	0.000000e+00	0.0	1.603960e+02	0.000000e+00	0.0	1.623762e+02	0.000000e+00	0.0	1.643564e+02	0.000000e+00	0.0	1.663366e+02	0.000000e+00	0.0	1.683168e+02	0.000000e+00	0.0	1.702970e+02	0.000000e+00	0.0	1.722772e+02	0.000000e+00	0.0	1.742574e+02	0.000000e+00	0.0	1.762376e+02	0.000000e+00	0.0	1.782178e+02	0.000000e+00	0.0	1.801980e+02	0.000000e+00	0.0	1.821782e+02	0.000000e+00	0.0	1.841584e+02	0.000000e+00	0.0	1.861386e+02	0.000000e+00	0.0	1.881188e+02	0.000000e+00	0.0	1.900990e+02	0.000000e+00	0.0	1.920792e+02	0.000000e+00	0.0	1.940594e+02	0.000000e+00	0.0	1.960396e+02	0.000000e+00	0.0	1.980198e+02	0.000000e+00	0.0	2.000000e+02	0.000000e+00	0.0	0.000000e+00	1.980198e+00	0.0	1.980198e+00	1.980198e+00	0.0	3.960396e+00	1.980198e+00	0.0	5.940594e+00	1.980198e+00	0.0	7.920792e+00	1.980198e+00	0.0	9.900990e+00	1.980198e+00	0.0	1.188119e+01	1.980198e+00	0.0	1.386139e+01	1.980198e+00	0.0	1.584158e+01	1.980198e+00	0.0	1.782178e+01	1.980198e+00	0.0	1.980198e+01	1.980198e+00	0.0	2.178218e+01	1.980198e+00	0.0	2.376238e+01	1.980198e+00	0.0	2.574257e+01	1.980198e+00	0.0	2.772277e+01	1.980198e+00	0.0	2.970297e+01	1.980198e+00	0.0	3.168317e+01	1.980198e+00	0.0	3.366337e+01	1.980198e+00	0.0	3.564356e+01	1.980198e+00	0.0	3.762376e+01	1.980198e+00	0.0	3.960396e+01	1.980198e+00	0.0	4.158416e+01	1.980198e+00	0.0	4.356436e+01	1.980198e+00	0.0	4.554455e+01	1.980198e+00	0.0	4.752475e+01	1.980198e+00	0.0	4.950495e+01	1.980198e+00	0.0	5.148515e+01	1.980198e+00	0.0	5.346535e+01	1.980198e+00	0.0	5.544554e+01	1.980198e+00	0.0	5.742574e+01	1.980198e+00	0.0	5.940594e+01	1.980198e+00	0.0	6.138614e+01	1.980198e+00	0.0	6.336634e+01	1.980198e+00	0.0	6.534653e+01	1.980198e+00	0.0	6.732673e+01	1.980198e+00	0.0	6.930693e+01	1.980198e+00	0.0	7.128713e+01	1.980198e+00	0.0	7.326733e+01	1.980198e+00	0.0	7.524752e+01	1.980198e+00	0.0	7.722772e+01	1.980198e+00	0.0	7.920792e+01	1.980198e+00	0.0	8.118812e+01	1.980198e+00	0.0	8.316832e+01	1.980198e+00	0.0	8.514851e+01	1.980198e+00	0.0	8.712871e+01	1.980198e+00	0.0	8.910891e+01	1.980198e+00	0.0	9.108911e+01	1.980198e+00	0.0	9.306931e+01	1.980198e+00	0.0	9.504950e+01	1.980198e+00	0.0	9.702970e+01	1.980198e+00	0.0	9.900990e+01	1.980198e+00	0.0	1.009901e+02	1.980198e+00	0.0	1.029703e+02	1.980198e+00	0.0	1.049505e+02	1.980198e+00	0.0	1.069307e+02	1.980198e+00	0.0	1.089109e+02	1.980198e+00	0.0	1.108911e+02	1.980198e+00	0.0	1.128713e+02	1.980198e+00	0.0	1.148515e+02	1.980198e+00	0.0	1.168317e+02	1.980198e+00	0.0	1.188119e+02	1.980198e+00	0.0	1.207921e+02	1.980198e+00	0.0	1.227723e+02	1.980198e+00	0.0	1.247525e+02	1.980198e+00	0.0	1.267327e+02	1.980198e+00	0.0	1.287129e+02	1.980198e+00	0.0	1.306931e+02	1.980198e+00	0.0	1.326733e+02	1.980198e+00	0.0	1.346535e+02	1.980198e+00	0.0	1.366337e+02	1.980198e+00	0.0	1.386139e+02	1.980198e+00	0.0	1.405941e+02	1.980198e+00	0.0	1.425743e+02	1.980198e+00	0.0	1.445545e+02	1.980198e+00	0.0	1.465347e+02	1.980198e+00	0.0	1.485149e+02	1.980198e+00	0.0	1.504950e+02	1.980198e+00	0.0	1.524752e+02	1.980198e+00	0.0	1.544554e+02	1.980198e+00	0.0	1.564356e+02	1.980198e+00	0.0	1.584158e+02	1.980198e+00	0.0	1.603960e+02	1.980198e+00	0.0	1.623762e+02	1.980198e+00	0.0	1.643564e+02	1.980198e+00	0.0	1.663366e+02	1.980198e+00	0.0	1.683168e+02	1.980198e+00	0.0	1.702970e+02	1.980198e+00	0.0	1.722772e+02	1.980198e+00	0.0	1.742574e+02	1.980198e+00	0.0	1.762376e+02	1.980198e+00	0.0	1.782178e+02	1.980198e+00	0.0	1.801980e+02	1.980198e+00	0.0	1.821782e+02	1.980198e+00	0.0	1.841584e+02	1.980198e+00	0.0	1.861386e+02	1.980198e+00	0.0	1.881188e+02	1.980198e+00	0.0	1.900990e+02	1.980198e+00	0.0	1.920792e+02	1.980198e+00	0.0	1.940594e+02	1.980198e+00	0.0	1.960396e+02	1.980198e+00	0.0	1.980198e+02	1.980198e+00	0.0	2.000000e+02	1.980198e+00	0.0	0.000000e+00	3.960396e+00	0.0	1.980198e+00	3.960396e+00	0.0	3.960396e+00	3.960396e+00	0.0	5.940594e+00	3.960396e+00	0.0	7.920792e+00	3.960396e+00	0.0	9.900990e+00	3.960396e+00	0.0	1.188119e+01	3.960396e+00	0.0	1.386139e+01	3.960396e+00	0.0	1.584158e+01	3.960396e+00	0.0	1.782178e+01	3.960396e+00	0.0	1.980198e+01	3.960396e+00	0.0	2.178218e+01	3.960396e+00	0.0	2.376238e+01	3.960396e+00	0.0	2.574257e+01	3.960396e+00	0.0	2.772277e+01	3.960396e+00	0.0	2.970297e+01	3.960396e+00	0.0	3.168317e+01	3.960396e+00	0.0	3.366337e+01	3.960396e+00	0.0	3.564356e+01	3.960396e+00	0.0	3.762376e+01	3.960396e+00	0.0	3.960396e+01	3.960396e+00	0.0	4.158416e+01	3.960396e+00	0.0	4.356436e+01	3.960396e+00	0.0	4.554455e+01	3.960396e+00	0.0	4.752475e+01	3.960396e+00	0.0	4.950495e+01	3.960396e+00	0.0	5.148515e+01	3.960396e+00	0.0	5.346535e+01	3.960396e+00	0.0	5.544554e+01	3.960396e+00	0.0	5.742574e+01	3.960396e+00	0.0	5.940594e+01	3.960396e+00	0.0	6.138614e+01	3.960396e+00	0.0	6.336634e+01	3.960396e+00	0.0	6.534653e+01	3.960396e+00	0.0	6.732673e+01	3.960396e+00	0.0	6.930693e+01	3.960396e+00	0.0	7.128713e+01	3.960396e+00	0.0	7.326733e+01	3.960396e+00	0.0	7.524752e+01	3.960396e+00	0.0	7.722772e+01	3.960396e+00	0.0	7.920792e+01	3.960396e+00	0.0	8.118812e+01	3.960396e+00	0.0	8.316832e+01	3.960396e+00	0.0	8.514851e+01	3.960396e+00	0.0	8.712871e+01	3.960396e+00	0.0	8.910891e+01	3.960396e+00	0.0	9.108911e+01	3.960396e+00	0.0	9.306931e+01	3.960396e+00	0.0	9.504950e+01	3.960396e+00	0.0	9.702970e+01	3.960396e+00	0.0	9.900990e+01	3.960396e+00	0.0	1.009901e+02	3.960396e+00	0.0	1.029703e+02	3.960396e+00	0.0	1.049505e+02	3.960396e+00	0.0	1.069307e+02	3.960396e+00	0.0	1.089109e+02	3.960396e+00	0.0	1.108911e+02	3.960396e+00	0.0	1.128713e+02	3.960396e+00	0.0	1.148515e+02	3.960396e+00	0.0	1.168317e+02	3.960396e+00	0.0	1.188119e+02	3.960396e+00	0.0	1.207921e+02	3.960396e+00	0.0	1.227723e+02	3.960396e+00	0.0	1.247525e+02	3.960396e+00	0.0	1.267327e+02	3.960396e+00	0.0	1.287129e+02	3.960396e+00	0.0	1.306931e+02	3.960396e+00	0.0	1.326733e+02	3.960396e+00	0.0	1.346535e+02	3.960396e+00	0.0	1.366337e+02	3.960396e+00	0.0	1.386139e+02	3.960396e+00	0.0	1.405941e+02	3.960396e+00	0.0	1.425743e+02	3.960396e+00	0.0	1.445545e+02	3.960396e+00	0.0	1.465347e+02	3.960396e+00	0.0	1.485149e+02	3.960396e+00	0.0	1.504950e+02	3.960396e+00	0.0	1.524752e+02	3.960396e+00	0.0	1.544554e+02	3.960396e+00	0.0	1.564356e+02	3.960396e+00	0.0	1.584158e+02	3.960396e+00	0.0	1.603960e+02	3.960396e+00	0.0	1.623762e+02	3.960396e+00	0.0	1.643564e+02	3.960396e+00	0.0	1.663366e+02	3.960396e+00	0.0	1.683168e+02	3.960396e+00	0.0	1.702970e+02	3.960396e+00	0.0	1.722772e+02	3.960396e+00	0.0	1.742574e+02	3.960396e+00	0.0	1.762376e+02	3.960396e+00	0.0	1.782178e+02	3.960396e+00	0.0	1.801980e+02	3.960396e+00	0.0	1.821782e+02	3.960396e+00	0.0	1.841584e+02	3.960396e+00	0.0	1.861386e+02	3.960396e+00	0.0	1.881188e+02	3.960396e+00	0.0	1.900990e+02	3.960396e+00	0.0	1.920792e+02	3.960396e+00	0.0	1.940594e+02	3.960396e+00	0.0	1.960396e+02	3.960396e+00	0.0	1.980198e+02	3.960396e+00	0.0	2.000000e+02	3.960396e+00	0.0	0.000000e+00	5.940594e+00	0.0	1.980198e+00	5.940594e+00	0.0	3.960396e+00	5.940594e+00	0.0	5.940594e+00	5.940594e+00	0.0	7.920792e+00	5.940594e+00	0.0	9.900990e+00	5.940594e+00	0.0	1.188119e+01	5.940594e+00	0.0	1.386139e+01	5.940594e+00	0.0	1.584158e+01	5.940594e+00	0.0	1.782178e+01	5.940594e+00	0.0	1.980198e+01	5.940594e+00	0.0	2.178218e+01	5.940594e+00	0.0	2.376238e+01	5.940594e+00	0.0	2.574257e+01	5.940594e+00	0.0	2.772277e+01	5.940594e+00	0.0	2.970297e+01	5.940594e+00	0.0	3.168317e+01	5.940594e+00	0.0	3.366337e+01	5.940594e+00	0.0	3.564356e+01	5.940594e+00	0.0	3.762376e+01	5.940594e+00	0.0	3.960396e+01	5.940594e+00	0.0	4.158416e+01	5.940594e+00	0.0	4.356436e+01	5.940594e+00	0.0	4.554455e+01	5.940594
[...]
POINT_DATA 10404

SCALARS Height double 1
LOOKUP_TABLE default
4.000000e+00	4.000000e+00	4.000000e+00	4.000000e+00	4.000000e+00	4.000000e+00	4.000000e+00	4.000000e+00	4.000000e+00	4.000000e+00	4.000000e+00	4.000000e+00	4.000000e+00	4.000000e+00	4.000000e+00	3.999999e+00	3.999996e+00	3.999985e+00	3.999934e+00	3.999717e+00	3.998775e+00	3.994694e+00	3.976555e+00	3.917829e+00	3.829850e+00	3.729688e+00	3.624051e+00	3.516116e+00	3.408033e+00	3.301227e+00	3.196423e+00	3.093911e+00	2.993705e+00	2.895680e+00	2.799752e+00	2.705844e+00	2.613878e+00	2.523805e+00	2.435515e+00	2.348968e+00	2.264100e+00	2.180805e+00	2.098992e+00	2.018545e+00	1.939360e+00	1.861382e+00	1.814995e+00	1.796608e+00	1.789214e+00	1.794492e+00	1.819395e+00	1.840836e+00	1.851691e+00	1.864580e+00	1.878287e+00	1.890954e+00	1.903079e+00	1.914151e+00	1.924089e+00	1.932668e+00	1.940837e+00	1.949466e+00	1.958673e+00	1.968240e+00	1.978513e+00	1.988016e+00	1.995422e+00	1.998890e+00	1.998443e+00	1.994268e+00	1.987214e+00	1.981540e+00	1.984219e+00	1.989766e+00	1.984230e+00	1.894600e+00	1.464671e+00	1.045690e+00	1.001462e+00	1.000037e+00	1.000001e+00	1.000000e+00	1.000000e+00	1.000000e+00	1.000000e+00	1.000000e+00	1.000000e+00	1.000000e+00	1.000000e+00	1.000000e+00	1.000000e+00	1.000000e+00	1.000000e+00	1.000000e+00	1.000000e+00	1.000000e+00	1.000000e+00	1.000000e+00	1.000000e+00	1.000000e+00	1.000000e+00	1.000000e+00	4.000000e+00	4.000000e+00	4.000000e+00	4.000000e+00	4.000000e+00	4.000000e+00	4.000000e+00	4.000000e+00	4.000000e+00	4.000000e+00	4.000000e+00	4.000000e+00	4.000000e+00	4.000000e+00	4.000000e+00	4.000000e+00	3.999999e+00	3.999994e+00	3.999973e+00	3.999883e+00	3.999466e+00	3.997305e+00	3.982627e+00	3.916142e+00	3.827291e+00	3.728241e+00	3.624127e+00	3.517133e+00	3.409850e+00	3.303863e+00	3.199903e+00	3.097994e+00	2.998350e+00	2.900832e+00	2.805345e+00	2.711808e+00	2.620142e+00	2.530319e+00	2.442229e+00	2.355881e+00	2.271192e+00	2.188047e+00	2.106364e+00	2.026003e+00	1.946883e+00	1.869094e+00	1.822925e+00	1.804517e+00	1.797040e+00	1.801654e+00	1.826519e+00	1.847899e+00	1.858246e+00	1.869984e+00	1.882418e+00	1.894297e+00	1.906337e+00	1.917520e+00	1.927632e+00	1.936456e+00	1.944915e+00	1.953897e+00	1.962934e+00	1.971895e+00	1.981696e+00	1.990108e+00	1.996192e+00	2.000119e+00	2.001714e+00	1.997788e+00	1.992201e+00	1.986627e+00	1.989447e+00	1.994180e+00	1.991347e+00	1.920804e+00	1.427251e+00	1.015568e+00	1.000227e+00	1.000003e+00	1.000000e+00	1.000000e+00	1.000000e+00	1.000000e+00	1.000000e+00	1.000000e+00	1.000000e+00	1.000000e+00	1.000000e+00	1.000000e+00	1.000000e+00	1.000000e+00	1.000000e+00	1.000000e+00	1.000000e+00	1.000000e+00	1.000000e+00	1.000000e+00	1.000000e+00	1.000000e+00	1.000000e+00	1.000000e+00	4.000000e+00	4.000000e+00	4.000000e+00	4.000000e+00	4.000000e+00	4.000000e+00	4.000000e+00	4.000000e+00	4.000000e+00	4.000000e+00	4.000000e+00	4.000000e+00	4.000000e+00	4.000000e+00	4.000000e+00	4.000000e+00	3.999999e+00	3.999997e+00	3.999989e+00	3.999947e+00	3.999720e+00	3.998171e+00	3.984000e+00	3.910761e+00	3.815933e+00	3.715374e+00	3.610945e+00	3.504311e+00	3.396678e+00	3.290374e+00	3.186054e+00	3.084118e+00	2.984374e+00	2.886831e+00	2.791359e+00	2.697829e+00	2.606170e+00	2.516351e+00	2.428420e+00	2.342225e+00	2.257653e+00	2.174626e+00	2.093054e+00	2.012762e+00	1.933827e+00	1.856439e+00	1.812086e+00	1.794367e+00	1.787129e+00	1.793495e+00	1.818137e+00	1.838927e+00	1.850163e+00	1.861775e+00	1.872888e+00	1.882801e+00	1.893083e+00	1.903490e+00	1.913466e+00	1.922420e+00	1.930974e+00	1.939489e+00	1.947657e+00	1.955361e+00	1.961867e+00	1.968484e+00	1.975630e+00	1.981952e+00	1.987760e+00	1.991238e+00	1.993288e+00	1.994543e+00	1.996640e+00	1.999087e+00	1.994798e+00	1.914363e+00	1.387305e+00	1.012007e+00	1.000139e+00	1.000001e+00	1.000000e+00	1.000000e+00	1.000000e+00	1.000000e+00	1.000000e+00	1.000000e+00	1.000000e+00	1.000000e+00	1.000000e+00	1.000000e+00	1.000000e+00	1.000000e+00	1.000000e+00	1.000000e+00	1.000000e+00	1.000000e+00	1.000000e+00	1.000000e+00	1.000000e+00	1.000000e+00	1.000000e+00	1.000000e+00	4.000000e+00	4.000000e+00	4.000000e+00	4.000000e+00	4.000000e+00	4.000000e+00	4.000000e+00	4.000000e+00	4.000000e+00	4.000000e+00	4.000000e+00	4.000000e+00	4.000000e+00	4.000000e+00	4.000000e+00	4.000000e+00	4.000000e+00	3.999999e+00	3.999996e+00	3.999975e+00	3.999825e+00	3.998503e+00	3.983868e+00	3.904022e+00	3.802188e+00	3.699484e+00	3.595915e+00	3.492038e+00	3.387538e+00	3.282803e+00	3.179781e+00	3.079000e+00	2.980393e+00	2.883838e+00	2.789237e+00	2.696482e+00	2.605511e+00	2.516290e+00	2.428795e+00	2.342964e+00	2.258711e+00	2.175971e+00	2.094656e+00	2.014582e+00	1.935924e+00	1.859238e+00	1.816727e+00	1.799475e+00	1.792316e+00	1.799997e+00	1.823886e+00	1.843363e+00	1.854914e+00	1.866212e+00	1.876201e+00	1.884564e+00	1.893181e+00	1.902094e+00	1.911046e+00	1.919396e+00	1.927421e+00	1.934879e+00	1.942048e+00	1.948170e+00	1.952847e+00	1.956927e+00	1.961448e+00	1.967804e+00	1.975513e+00	1.985325e+00	1.996380e+00	2.004224e+00	2.010219e+00	2.014261e+00	2.009641e+00	1.908345e+00	1.342792e+00	1.009575e+00	1.000106e+00	1.000001e+00	1.000000e+00	1.000000e+00	1.000000e+00	1.000000e+00	1.000000e+00	1.000000e+00	1.000000e+00	1.000000e+00	1.000000e+00	1.000000e+00	1.000000e+00	1.000000e+00	1.000000e+00	1.000000e+00	1.000000e+00	1.000000e+00	1.000000e+00	1.000000e+00	1.000000e+00	1.000000e+00	1.000000e+00	1.000000e+00	4.000000e+00	4.000000e+00	4.000000e+00	4.000000e+00	4.000000e+00	4.000000e+00	4.000000e+00	4.000000e+00	4.000000e+00	4.000000e+00	4.000000e+00	4.000000e+00	4.000000e+00	4.000000e+00	4.000000e+00	4.000000e+00	4.000000e+00	4.000000e+00	3.999998e+00	3.999984e+00	3.999851e+00	3.998430e+00	3.981234e+00	3.892769e+00	3.784984e+00	3.678831e+00	3.576381e+00	3.474231e+00	3.372540e+00	3.270373e+00	3.168559e+00	3.068562e+00	2.970746e+00	2.874936e+00	2.781004e+00	2.688879e+00	2.598501e+00	2.509830e+00	2.422825e+00	2.337426e+00	2.253570e+00	2.171195e+00	2.090215e+00	2.010463e+00	1.932000e+00	1.856607e+00	1.816928e+00	1.800674e+00	1.793846e+00	1.803783e+00	1.826693e+00	1.844033e+00	1.855665e+00	1.866962e+00	1.876488e+00	1.884355e+00	1.892148e+00	1.900058e+00	1.907854e+00	1.915108e+00	1.921964e+00	1.927943e+00	1.933378e+00	1.938912e+00	1.943845e+00	1.947277e+00	1.950502e+00	1.958434e+00	1.969832e+00	1.981514e+00	1.996146e+00	2.010809e+00	2.019519e+00	2.027821e+00	2.022824e+00	1.891305e+00	1.291727e+00	1.007319e+00	1.000075e+00	1.000001e+00	1.000000e+00	1.000000e+00	1.000000e+00	1.000000e+00	1.000000e+00	1.000000e+00	1.000000e+00	1.000000e+00	1.000000e+00	1.000000e+00	1.000000e+00	1.000000e+00	1.000000e+00	1.000000e+00	1.000000e+00	1.000000e+00	1.000000e+00	1.000000e+00	1.000000e+00	1.000000e+00	1.000000e+00	1.000000e+00	4.000000e+00	4.000000e+00	4.000000e+00	4.000000e+00	4.000000e+00	4.000000e+00	4.000000e+00	4.000000e+00	4.000000e+00	4.000000e+00	4.000000e+00	4.000000e+00	4.000000e+00	4.000000e+00	4.000000e+00	4.000000e+00	4.000000e+00	4.000000e+00	3.999998e+00	3.999983e+00	3.999815e+00	3.997902e+00	3.974228e+00	3.875856e+00	3.764803e+00	3.656295e+00	3.552244e+00	3.452151e+00	3.352402e+00	3.253713e+00	3.154356e+00	3.055542e+00	2.958466e+00	2.863382e+00	2.770147e+00	2.678694e+00	2.588983e+00	2.500953e+00	2.414547e+00	2.329682e+00	2.246333e+00	2.164430e+00	2.083889e+00	2.004581e+00	1.926083e+00	1.853062e+00	1.816898e+00	1.802211e+00	1.796467e+00	1.810231e+00	1.831563e+00	1.845022e+00	1.856315e+00	1.867904e+00	1.877767e+00	1.886033e+00	1.893935e+00	1.901726e+00	1.909170e+00	1.915803e+00	1.922141e+00	1.927908e+00	1.933134e+00	1.938152e+00	1.942639e+00	1.947179e+00	1.952647e+00	1.959397e+00	1.968743e+00	1.980516e+00	1.999805e+00	2.015281e+00	2.023238e+00	2.031730e+00	2.025617e+00	1.868436e+00	1.246969e+00	1.005487e+00	1.000053e+00	1.000000e+00	1.000000e+00	1.000000e+00	1.000000e+00	1.000000e+00	1.000000e+00	1.000000e+00	1.000000e+00	1.000000e+00	1.000000e+00	1.000000e+00	1.000000e+00	1.000000e+00	1.000000e+00	1.000000e+00	1.000000e+00	1.000000e+00	1.000000e+00	1.000000e+00	1.000000e+00	1.000000e+00	1.000000e+00	1.000000e+00	4.000000e+00	4.000000e+00	4.000000e+00	4.000000e+00	4.000000e+00	4.000000e+00	4.000000e+00	4.000000e+00	4.000000e+00	4.000000e+00	4.000000e+00	4.000000e+00	4.000000e+00	4.000000e+00	4.000000e+00	4.000000e+00	4.000000e+00	4.000000e+00	3.999998e+00	3.999976e+00	3.999723e+00	3.996680e+00	3.960194e+00	3.853103e+00	3.741055e+00	3.631359e+00	3.525914e+00	3.425273e+00	3.328315e+00	3.231719e+00	3.136331e+00	3.039690e+00	2.943758e+00	2.849409e+00	2.756867e+00	2.666090e+00	2.577068e+00	2.489722e+00	2.403973e+00	2.319720e+00	2.236952e+00	2.155610e+00	2.075602e+00	1.996814e+00	1.918298e+00	1.848681e+00	1.816282e+00	1.803600e+00	1.799618e+00	1.817147e+00	1.836792e+00	1.845958e+00	1.857122e+00	1.869654e+00	1.881036e+00	1.890511e+00	1.899095e+00	1.907197e+00	1.914892e+00	1.921361e+00	1.927774e+00	1.933868e+00	1.939621e+00	1.946310e+00	1.952834e+00	1.958498e+00	1.962976e+00	1.969647e+00	1.976738e+00	1.988122e+00	2.006358e+00	2.015306e+00	2.021490e+00	2.025107e+00	2.012714e+00	1.835677e+00	1.216197e+00	1.004383e+00	1.000040e+00	1.000000e+00	1.000000e+00	1.000000e+00	1.000000e+00	1.000000e+00	1.000000e+00	1.000000e+00	1.000000e+00	1.000000e+00	1.000000e+00	1.000000e+00	1.000000e+00	1.000000e+00	1.000000e+00	1.000000e+00	1.000000e+00	1.000000e+00	1.000000e+00	1.000000e+00	1.000000e+00	1.000000e+00	1.000000e+00	1.000000e+00	4.000000e+00	4.000000e+00	4.000000e+00	4.000000e+00	4.000000e+00	4.000000e+00	4.000000e+00	4.000000e+00	4.000000e+00	4.000000e+00	4.000000e+00	4.000000e+00	4.000000e+00	4.000000e+00	4.000000e+00	4.000000e+00	4.000000e+00	4.000000e+00	3.999996e+00	3.999958e+00	3.999495e+00	3.993895e+00	3.936100e+00	3.825394e+00	3.713197e+00	3.603149e+00	3.497287e+00	3.396211e+00	3.300140e+00	3.206148e+00	3.112722e+00	3.020232e+00	2.926404e+00	2.833189e+00	2.741394e+00	2.651323e+00	2.562982e+00	2.476321e+00	2.391250e+00	2.307671e+00	2.225556e+00	2.144865e+00	2.065470e+00	1.987304e+00	1.908731e+00	1.843660e+00	1.815342e+00	1.804688e+00	1.803565e+00	1.824168e+00	1.842634e+00	1.849863e+00	1.860312e+00	1.874078e+00	1.887668e+00	1.899239e+00	1.908625e+00	1.916767e+00	1.924465e+00	1.930712e+00	1.936817e+00	1.943208e+00	1.949882e+00	1.956937e+00	1.964423e+00	1.970519e+00	1.975647e+00	1.983285e+00	1.991465e+00	1.998417e+00	2.000761e+00	2.003890e+00	2.007367e+00	2.008198e+00	1.993314e+00	1.800507e+00	1.189574e+00	1.003420e+00	1.000029e+00	1.000000e+00	1.000000e+00	1.000000e+00	1.000000e+00	1.000000e+00	1.000000e+00	1.000000e+00	1.000000e+00	1.000000e+00	1.000000e+00	1.000000e+00	1.000000e+00	1.000000e+00	1.000000e+00	1.000000e+00	1.000000e+00	1.000000e+00	1.000000e+00	1.000000e+00	1.000000e+00	1.000000e+00	1.000000e+00	1.000000e+00	4.000000e+00	4.000000e+00	4.000000e+00	4.000000e+00	4.000000e+00	4.000000e+00	4.000000e+00	4.000000e+00	4.000000e+00	4.000000e+00	4.000000e+00	4.000000e+00	4.000000e+00	4.000000e+00	4.000000e+00	4.000000e+00	4.000000e+00	3.999999e+00	3.999993e+00	3.999914e+00	3.998952e+00	3.986831e+00	3.902325e+00	3.791359e+00	3.680404e+00	3.571126e+00	3.466429e+00	3.365763e+00	3.269744e+00	3.177180e+00	3.085697e+00	2.995126e+00	2.905349e+00	2.814410e+00	2.723877e+00	2.634650e+00	2.547038e+00	2.461066e+00	2.376673e+00	2.293774e+00	2.212347e+00	2.132373e+00	2.053654e+00	1.976283e+00	1.897779e+00	1.838362e+00	1.814106e+00	1.805360e+00	1.808254e+00	1.831801e+00	1.850155e+00	1.858012e+00	1.868886e+00	1.882076e+00	1.895804e+00	1.908646e+00	1.919037e+00	1.927865e+00	1.935800e+00	1.941610e+00	1.947014e+00	1.953418e+00	1.959944e+00	1.966496e+00	1.973077e+00	1.978726e+00	1.988296e+00	1.994452e+00	1.996181e+00	1.996117e+00	1.993616e+00	1.991780e+00	1.994208e+00	1.995327e+00	1.979361e+00	1.760948e+00	1.155546e+00	1.002305e+00	1.000018e+00	1.000000e+00	1.000000e+00	1.000000e+00	1.000000e+00	1.000000e+00	1.000000e+00	1.000000e+00	1.000000e+00	1.000000e+00	1.000000e+00	1.000000e+00	1.000000e+00	1.000000e+00	1.000000e+00	1.000000e+00	1.000000e+00	1.000000e+00	1.000000e+00	1.000000e+00	1.000000e+00	1.000000e+00	1.000000e+00	1.000000e+00	4.000000e+00	4.000000e+00	4.000000e+00	4.000000e+00	4.000000e+00	4.000000e+00	4.000000e+00	4.000000e+00	4.000000e+00	4.000000e+00	4.000000e+00	4.000000e+00	4.000000e+00	4.000000e+00	4.000000e+00	4.000000e+00	4.000000e+00	3.999999e+00	3.999984e+00	3.999804e+00	3.997526e+00	3.968370e+00	3.864006e+00	3.751250e+00	3.641490e+00	3.535353e+00	3.433278e+00	3.334174e+00	3.238335e+00	3.145822e+00	3.055901e+00	2.966677e+00	2.878777e+00	2.791787e+00	2.703860e+00	2.616054e+00	2.529419e+00	2.444201e+00	2.360509e+00	2.278319e+00	2.197621e+00	2.118436e+00	2.040472e+00	1.963991e+00	1.886313e+00	1.832904e+00	1.812918e+00	1.805916e+00	1.814567e+00	1.841466e+00	1.861608e+00	1.870229e+00	1.880566e+00	1.891889e+00	1.903266e+00	1.915260e+00	1.926598e+00	1.936023e+00	1.944475e+00	1.950492e+00	1.955973e+00	1.961368e+00	1.966994e+00	1.973790e+00	1.980212e+00	1.985616e+00	1.988018e+00	1.990399e+00	1.991815e+00	1.990846e+00	1.986271e+00	1.982549e+00	1.986204e+00	1.988651e+00	1.972038e+00	1.707099e+00	1.114486e+00	1.001332e+00	1.000011e+00	1.000000e+00	1.000000e+00	1.000000e+00	1.000000e+00	1.000000e+00	1.000000e+00	1.000000e+00	1.000000e+00	1.000000e+00	1.000000e+00	1.000000e+00	1.000000e+00	1.000000e+00	1.000000e+00	1.000000e+00	1.000000e+00	1.000000e+00	1.000000e+00	1.000000e+00	1.000000e+00	1.000000e+00	1.000000e+00	1.000000e+00	4.000000e+00	4.000000e+00	4.000000e+00	4.000000e+00	4.000000e+00	4.000000e+00	4.000000e+00	4.000000e+00	4.000000e+00	4.000000e+00	4.000000e+00	4.000000e+00	4.000000e+00	4.000000e+00	4.000000e+00	4.000000e+00	4.000000e+00	3.999997e+00	3.999961e+00	3.999506e+00	3.993777e+00	3.932398e+00	3.819044e+00	3.705247e+00	3.597842e+00	3.495836e+00	3.397478e+00	3.301066e+00	3.206072e+00	3.113340e+00	3.023352e+00	2.935745e+00	2.848987e+00	2.763604e+00	2.679352e+00	2.594861e+00	2.509849e+00	2.425782e+00	2.342955e+00	2.261560e+00	2.181641e+00	2.103303e+00	2.026276e+00	1.950701e+00	1.875191e+00	1.828334e+00	1.812424e+00	1.807441e+00	1.823260e+00	1.852902e+00	1.873333e+00	1.881273e+00	1.890239e+00	1.900495e+00	1.910407e+00	1.920735e+00	1.931299e+00	1.940894e+00	1.949937e+00	1.955943e+00	1.961545e+00	1.965560e+00	1.970998e+00	1.974451e+00	1.976438e+00	1.979177e+00	1.981879e+00	1.984784e+00	1.986189e+00	1.983651e+00	1.978286e+00	1.977623e+00	1.984537e+00	1.991378e+00	1.969587e+00	1.631960e+00	1.068384e+00	1.000565e+00	1.000006e+00	1.000000e+00	1.000000e+00	1.000000e+00	1.000000e+00	1.000000e+00	1.000000e+00	1.000000e+00	1.000000e+00	1.000000e+00	1.000000e+00	1.000000e+00	1.000000e+00	1.000000e+00	1.000000e+00	1.000000e+00	1.000000e+00	1.000000e+00	1.000000e+00	1.000000e+00	1.000000e+00	1.000000e+00	1.000000e+00	1.000000e+00	4.000000e+00	4.000000e+00	4.000000e+00	4.000000e+00	4.000000e+00	4.000000e+00	4.000000e+00	4.000000e+00	4.000000e+00	4.000000e+00	4.000000e+00	4.000000e+00	4.000000e+00	4.000000e+00	4.000000e+00	4.000000e+00	3.999999e+00	3.999992e+00	3.999891e+00	3.998616e+00	3.980797e+00	3.881683e+00	3.765163e+00	3.654259e+00	3.550983e+00	3.453410e+00	3.358631e+00	3.265214e+00	3.172350e+00	3.080534e+00	2.990599e+00	2.902890e+00	2.817180e+00	2.732777e+00	2.649801e+00	2.568051e+00	2.486834e+00	2.405047e+00	2.323708e+00	2.243429e+00	2.164486e+00	2.087087e+00	2.011253e+00	1.936536e+00	1.864665e+00	1.825978e+00	1.814262e+00	1.812522e+00	1.833860e+00	1.862299e+00	1.882073e+00	1.889116e+00	1.896370e+00	1.904523e+00	1.912714e+00	1.922777e+00	1.934386e+00	1.943967e+00	1.952501e+00	1.959680e+00	1.964829e+00	1.969002e+00	1.971714e+00	1.972102e+00	1.973330e+00	1.975119e+00	1.977264e+00	1.978880e+00	1.978603e+00	1.975709e+00	1.973464e+00	1.980200e+00	1.995784e+00	2.002079e+00	1.962987e+00	1.528688e+00	1.026311e+00	1.000282e+00	1.000003e+00	1.000000e+00	1.000000e+00	1.000000e+00	1.000000e+00	1.000000e+00	1.000000e+00	1.000000e+00	1.000000e+00	1.000000e+00	1.000000e+00	1.000000e+00	1.000000e+00	1.000000e+00	1.000000e+00	1.000000e+00	1.000000e+00	1.000000e+00	1.000000e+00	1.000000e+00	1.000000e+00	1.000000e+00	1.000000e+00	1.000000e+00	4.000000e+00	4.000000e+00	4.000000e+00	4.000000e+00	4.000000e+00	4.000000e+00	4.000000e+00	4.000000e+00	4.000000e+00	4.000000e+00	4.000000e+00	4.000000e+00	4.000000e+00	4.000000e+00	4.000000e+00	4.000000e+00	3.999998e+00	3.999974e+00	3.999656e+00	3.995385e+00	3.943400e+00	3.823156e+00	3.705828e+00	3.599992e+00	3.501972e+00	3.408368e+00	3.316716e+00	3.226124e+00	3.136034e+00	3.046043e+00	2.957031e+00	2.869393e+00	2.783994e+00	2.700378e+00	2.618378e+00	2.537801e+00	2.458465e+00	2.380021e+00	2.301469e+00	2.223101e+00	2.145697e+00	2.069551e+00	1.995240e+00	1.921203e+00	1.856338e+00	1.826742e+00	1.818710e+00	1.821833e+00	1.843533e+00	1.868702e+00	1.887051e+00	1.893453e+00	1.899041e+00	1.905338e+00	1.911576e+00	1.918895e+00	1.929549e+00	1.941856e+00	1.954286e+00	1.964100e+00	1.969800e+00	1.972565e+00	1.973961e+00	1.973593e+00	1.974196e+00	1.974511e+00	1.974643e+00	1.973105e+00	1.972336e+00	1.972520e+00	1.981935e+00	1.995007e+00	2.010642e+00	2.013290e+00	1.940733e+00	1.389433e+00	1.011216e+00	1.000121e+00	1.000001e+00	1.000000e+00	1.000000e+00	1.000000e+00	1.000000e+00	1.000000e+00	1.000000e+00	1.000000e+00	1.000000e+00	1.000000e+00	1.000000e+00	1.000000e+00	1.000000e+00	1.000000e+00	1.000000e+00	1.000000e+00	1.000000e+00	1.000000e+00	1.000000e+00	1.000000e+00	1.000000e+00	1.000000e+00	1.000000e+00	1.000000e+00	4.000000e+00	4.000000e+00	4.000000e+00	4.000000e+00	4.000000e+00	4.000000e+00	4.000000e+00	4.000000e+00	4.000000e+00	4.000000e+00	4.000000e+00	4.000000e+00	4.000000e+00	4.000000e+00	4.000000e+00	3.999999e+00	3.999993e+00	3.999905e+00	3.998724e+00	3.981296e+00	3.875904e+00	3.754488e+00	3.643729e+00	3.544098e+00	3.450898e+00	3.360771e+00	3.271826e+00	3.183763e+00	3.096315e+00	3.008972e+00	2.922095e+00	2.835609e+00	2.750360e+00	2.666952e+00	2.585500e+00	2.505801e+00	2.427650e+00	2.350738e+00	2.274776e+00	2.199281e+00	2.124163e+00	2.049939e+00	1.977554e+00	1.905410e+00	1.851169e+00	1.830315e+00	1.824534e+00	1.830798e+00	1.850379e+00	1.871642e+00	1.888531e+00	1.895174e+00	1.899518e+00	1.904240e+00	1.908968e+00	1.914470e+00	1.921371e+00	1.930886e+00	1.941253e+00	1.957403e+00	1.972643e+00	1.981990e+00	1.982669e+00	1.981833e+00	1.981614e+00	1.980143e+00	1.979575e+00	1.978812e+00	1.978297e+00	1.985709e+00	1.996015e+00	2.012363e+00	2.022912e+00	2.021341e+00	1.883420e+00	1.249815e+00	1.005087e+00	1.000045e+00	1.000000e+00	1.000000e+00	1.000000e+00	1.000000e+00	1.000000e+00	1.000000e+00	1.000000e+00	1.000000e+00	1.000000e+00	1.000000e+00	1.000000e+00	1.000000e+00	1.000000e+00	1.000000e+00	1.000000e+00	1.000000e+00	1.000000e+00	1.000000e+00	1.000000e+00	1.000000e+00	1.000000e+00	1.000000e+00	1.000000e+00	1.000000e+00	4.000000e+00	4.000000e+00	4.000000e+00	4.000000e+00	4.000000e+00	4.000000e+00	4.000000e+00	4.000000e+00	4.000000e+00	4.000000e+00	4.000000e+00	4.000000e+00	4.000000e+00	4.000000e+00	4.000000e+00	3.999997e+00	3.999967e+00	3.999557e+00	3.993783e+00	3.925498e+00	3.799568e+00	3.682865e+00	3.580276e+00	3.486703e+00	3.397683e+00	3.310623e+00	3.224209e+00	3.138452e+00	3.053314e+00	2.969003e+00	2.884300e+00	2.800414e+00	2.716542e+00	2.633731e+00	2.552399e+00	2.472900e+00	2.395262e+00	2.319381e+00	2.244890e+00	2.171465e+00	2.098983e+00	2.027365e+00	1.957387e+00	1.890663e+00	1.848797e+00	1.834330e+00	1.829842e+00	1.837873e+00	1.854115e+00	1.871718e+00	1.887345e+00	1.895267e+00	1.899037e+00	1.902514e+00	1.906073e+00	1.910106e+00	1.914432e+00	1.919295e+00	1.927635e+00	1.939420e+00	1.955529e+00	1.974090e+00	1.991045e+00	2.000180e+00	1.999194e+00	1.996108e+00	1.993601e+00	1.992435e+00	1.996438e+00	2.003414e+00	2.014707e+00	2.025540e+00	2.031882e+00	2.017716e+00	1.777849e+00	1.145819e+00	1.001954e+00	1.000015e+00	1.000000e+00	1.000000e+00	1.000000e+00	1.000000e+00	1.000000e+00	1.000000e+00	1.000000e+00	1.000000e+00	1.000000e+00	1.000000e+00	1.000000e+00	1.000000e+00	1.000000e+00	1.000000e+00	1.000000e+00	1.000000e+00	1.000000e+00	1.000000e+00	1.000000e+00	1.000000e+00	1.000000e+00	1.000000e+00	1.000000e+00	1.000000e+00	3.999999e+00	4.000000e+00	4.000000e+00	4.000000