# vtk DataFile Version 3.0
vtk output
ASCII
DATASET STRUCTURED_GRID
DIMENSIONS 102 102 1
POINTS 10404 double
0.000000e+00	0.000000e+00	0.0	1.980198e+00	0.000000e+00	0.0	3.960396e+00	0.000000e+00	0.0	5.940594e+00	0.000000e+00	0.0	7.920792e+00	0.000000e+00	0.0	9.900990e+00	0.000000e+00	0.0	1.188119e+01	0.000000e+00	0.0	1.386139e+01	0.000000e+00	0.0	1.584158e+01	0.000000e+00	0.0	1.782178e+01	0.000000e+00	0.0	1.980198e+01	0.000000e+00	0.0	2.178218e+01	0.000000e+00	0.0	2.376238e+01	0.000000e+00	0.0	2.574257e+01	0.000000e+00	0.0	2.772277e+01	0.000000e+00	0.0	2.970297e+01	0.000000e+00	0.0	3.168317e+01	0.000000e+00	0.0	3.366337e+01	0.000000e+00	0.0	3.564356e+01	0.000000e+00	0.0	3.762376e+01	0.000000e+00	0.0	3.960396e+01	0.000000e+00	0.0	4.158416e+01	0.000000e+00	0.0	4.356436e+01	0.000000e+00	0.0	4.554455e+01	0.000000e+00	0.0	4.752475e+01	0.000000e+00	0.0	4.950495e+01	0.000000e+00	0.0	5.148515e+01	0.000000e+00	0.0	5.346535e+01	0.000000e+00	0.0	5.544554e+01	0.000000e+00	0.0	5.742574e+01	0.000000e+00	0.0	5.940594e+01	0.000000e+00	0.0	6.138614e+01	0.000000e+00	0.0	6.336634e+01	0.000000e+00	0.0	6.534653e+01	0.000000e+00	0.0	6.732673e+01	0.000000e+00	0.0	6.930693e+01	0.000000e+00	0.0	7.128713e+01	0.000000e+00	0.0	7.326733e+01	0.000000e+00	0.0	7.524752e+01	0.000000e+00	0.0	7.722772e+01	0.000000e+00	0.0	7.920792e+01	0.000000e+00	0.0	8.118812e+01	0.000000e+00	0.0	8.316832e+01	0.000000e+00	0.0	8.514851e+01	0.000000e+00	0.0	8.712871e+01	0.000000e+00	0.0	8.910891e+01	0.000000e+00	0.0	9.108911e+01	0.000000e+00	0.0	9.306931e+01	0.000000e+00	0.0	9.504950e+01	0.000000e+00	0.0	9.702970e+01	0.000000e+00	0.0	9.900990e+01	0.000000e+00	0.0	1.009901e+02	0.000000e+00	0.0	1.029703e+02	0.000000e+00	0.0	1.049505e+02	0.000000e+00	0.0	1.069307e+02	0.000000e+00	0.0	1.089109e+02	0.000000e+00	0.0	1.108911e+02	0.000000e+00	0.0	1.128713e+02	0.000000e+00	0.0	1.148515e+02	0.000000e+00	0.0	1.168317e+02	0.000000e+00	0.0	1.188119e+02	0.000000e+00	0.0	1.207921e+02	0.000000e+00	0.0	1.227723e+02	0.000000e+00	0.0	1.247525e+02	0.000000e+00	0.0	1.267327e+02	0.000000e+00	0.0	1.287129e+02	0.000000e+00	0.0	1.306931e+02	0.000000e+00	0.0	1.326733e+02	0.000000e+00	0.0	1.346535e+02	0.000000e+00	0.0	1.366337e+02	0.000000e+00	0.0	1.386139e+02	0.000000e+00	0.0	1.405941e+02	0.000000e+00	0.0	1.425743e+02	0.000000e+00	0.0	1.445545e+02	0.000000e+00	0.0	1.465347e+02	0.000000e+00	0.0	1.485149e+02	0.000000e+00	0.0	1.504950e+02	0.000000e+00	0.0	1.524752e+02	0.000000e+00	0.0	1.544554e+02	0.000000e+00	0.0	1.564356e+02	0.000000e+00	0.0	1.584158e+02	0.000000e+00	0.0	1.603960e+02	0.000000e+00	0.0	1.623762e+02	0.000000e+00	0.0	1.643564e+02	0.000000e+00	0.0	1.663366e+02	0.000000e+00	0.0	1.683168e+02	0.000000e+00	0.0	1.702970e+02	0.000000e+00	0.0	1.722772e+02	0.000000e+00	0.0	1.742574e+02	0.000000e+00	0.0	1.762376e+02	0.000000e+00	0.0	1.782178e+02	0.000000e+00	0.0	1.801980e+02	0.000000e+00	0.0	1.821782e+02	0.000000e+00	0.0	1.841584e+02	0.000000e+00	0.0	1.861386e+02	0.000000e+00	0.0	1.881188e+02	0.000000e+00	0.0	1.900990e+02	0.000000e+00	0.0	1.920792e+02	0.000000e+00	0.0	1.940594e+02	0.000000e+00	0.0	1.960396e+02	0.000000e+00	0.0	1.980198e+02	0.000000e+00	0.0	2.000000e+02	0.000000e+00	0.0	0.000000e+00	1.980198e+00	0.0	1.980198e+00	1.980198e+00	0.0	3.960396e+00	1.980198e+00	0.0	5.940594e+00	1.980198e+00	0.0	7.920792e+00	1.980198e+00	0.0	9.900990e+00	1.980198e+00	0.0	1.188119e+01	1.980198e+00	0.0	1.386139e+01	1.980198e+00	0.0	1.584158e+01	1.980198e+00	0.0	1.782178e+01	1.980198e+00	0.0	1.980198e+01	1.980198e+00	0.0	2.178218e+01	1.980198e+00	0.0	2.376238e+01	1.980198e+00	0.0	2.574257e+01	1.980198e+00	0.0	2.772277e+01	1.980198e+00	0.0	2.970297e+01	1.980198e+00	0.0	3.168317e+01	1.980198e+00	0.0	3.366337e+01	1.980198e+00	0.0	3.564356e+01	1.980198e+00	0.0	3.762376e+01	1.980198e+00	0.0	3.960396e+01	1.980198e+00	0.0	4.158416e+01	1.980198e+00	0.0	4.356436e+01	1.980198e+00	0.0	4.554455e+01	1.980198e+00	0.0	4.752475e+01	1.980198e+00	0.0	4.950495e+01	1.980198e+00	0.0	5.148515e+01	1.980198e+00	0.0	5.346535e+01	1.980198e+00	0.0	5.544554e+01	1.980198e+00	0.0	5.742574e+01	1.980198e+00	0.0	5.940594e+01	1.980198e+00	0.0	6.138614e+01	1.980198e+00	0.0	6.336634e+01	1.980198e+00	0.0	6.534653e+01	1.980198e+00	0.0	6.732673e+01	1.980198e+00	0.0	6.930693e+01	1.980198e+00	0.0	7.128713e+01	1.980198e+00	0.0	7.326733e+01	1.980198e+00	0.0	7.524752e+01	1.980198e+00	0.0	7.722772e+01	1.980198e+00	0.0	7.920792e+01	1.980198e+00	0.0	8.118812e+01	1.980198e+00	0.0	8.316832e+01	1.980198e+00	0.0	8.514851e+01	1.980198e+00	0.0	8.712871e+01	1.980198e+00	0.0	8.910891e+01	1.980198e+00	0.0	9.108911e+01	1.980198e+00	0.0	9.306931e+01	1.980198e+00	0.0	9.504950e+01	1.980198e+00	0.0	9.702970e+01	1.980198e+00	0.0	9.900990e+01	1.980198e+00	0.0	1.009901e+02	1.980198e+00	0.0	1.029703e+02	1.980198e+00	0.0	1.049505e+02	1.980198e+00	0.0	1.069307e+02	1.980198e+00	0.0	1.089109e+02	1.980198e+00	0.0	1.108911e+02	1.980198e+00	0.0	1.128713e+02	1.980198e+00	0.0	1.148515e+02	1.980198e+00	0.0	1.168317e+02	1.980198e+00	0.0	1.188119e+02	1.980198e+00	0.0	1.207921e+02	1.980198e+00	0.0	1.227723e+02	1.980198e+00	0.0	1.247525e+02	1.980198e+00	0.0	1.267327e+02	1.980198e+00	0.0	1.287129e+02	1.980198e+00	0.0	1.306931e+02	1.980198e+00	0.0	1.326733e+02	1.980198e+00	0.0	1.346535e+02	1.980198e+00	0.0	1.366337e+02	1.980198e+00	0.0	1.386139e+02	1.980198e+00	0.0	1.405941e+02	1.980198e+00	0.0	1.425743e+02	1.980198e+00	0.0	1.445545e+02	1.980198e+00	0.0	1.465347e+02	1.980198e+00	0.0	1.485149e+02	1.980198e+00	0.0	1.504950e+02	1.980198e+00	0.0	1.524752e+02	1.980198e+00	0.0	1.544554e+02	1.980198e+00	0.0	1.564356e+02	1.980198e+00	0.0	1.584158e+02	1.980198e+00	0.0	1.603960e+02	1.980198e+00	0.0	1.623762e+02	1.980198e+00	0.0	1.643564e+02	1.980198e+00	0.0	1.663366e+02	1.980198e+00	0.0	1.683168e+02	1.980198e+00	0.0	1.702970e+02	1.980198e+00	0.0	1.722772e+02	1.980198e+00	0.0	1.742574e+02	1.980198e+00	0.0	1.762376e+02	1.980198e+00	0.0	1.782178e+02	1.980198e+00	0.0	1.801980e+02	1.980198e+00	0.0	1.821782e+02	1.980198e+00	0.0	1.841584e+02	1.980198e+00	0.0	1.861386e+02	1.980198e+00	0.0	1.881188e+02	1.980198e+00	0.0	1.900990e+02	1.980198e+00	0.0	1.920792e+02	1.980198e+00	0.0	1.940594e+02	1.980198e+00	0.0	1.960396e+02	1.980198e+00	0.0	1.980198e+02	1.980198e+00	0.0	2.000000e+02	1.980198e+00	0.0	0.000000e+00	3.960396e+00	0.0	1.980198e+00	3.960396e+00	0.0	3.960396e+00	3.960396e+00	0.0	5.940594e+00	3.960396e+00	0.0	7.920792e+00	3.960396e+00	0.0	9.900990e+00	3.960396e+00	0.0	1.188119e+01	3.960396e+00	0.0	1.386139e+01	3.960396e+00	0.0	1.584158e+01	3.960396e+00	0.0	1.782178e+01	3.960396e+00	0.0	1.980198e+01	3.960396e+00	0.0	2.178218e+01	3.960396e+00	0.0	2.376238e+01	3.960396e+00	0.0	2.574257e+01	3.960396e+00	0.0	2.772277e+01	3.960396e+00	0.0	2.970297e+01	3.960396e+00	0.0	3.168317e+01	3.960396e+00	0.0	3.366337e+01	3.960396e+00	0.0	3.564356e+01	3.960396e+00	0.0	3.762376e+01	3.960396e+00	0.0	3.960396e+01	3.960396e+00	0.0	4.158416e+01	3.960396e+00	0.0	4.356436e+01	3.960396e+00	0.0	4.554455e+01	3.960396e+00	0.0	4.752475e+01	3.960396e+00	0.0	4.950495e+01	3.960396e+00	0.0	5.148515e+01	3.960396e+00	0.0	5.346535e+01	3.960396e+00	0.0	5.544554e+01	3.960396e+00	0.0	5.742574e+01	3.960396e+00	0.0	5.940594e+01	3.960396e+00	0.0	6.138614e+01	3.960396e+00	0.0	6.336634e+01	3.960396e+00	0.0	6.534653e+01	3.960396e+00	0.0	6.732673e+01	3.960396e+00	0.0	6.930693e+01	3.960396e+00	0.0	7.128713e+01	3.960396e+00	0.0	7.326733e+01	3.960396e+00	0.0	7.524752e+01	3.960396e+00	0.0	7.722772e+01	3.960396e+00	0.0	7.920792e+01	3.960396e+00	0.0	8.118812e+01	3.960396e+00	0.0	8.316832e+01	3.960396e+00	0.0	8.514851e+01	3.960396e+00	0.0	8.712871e+01	3.960396e+00	0.0	8.910891e+01	3.960396e+00	0.0	9.108911e+01	3.960396e+00	0.0	9.306931e+01	3.960396e+00	0.0	9.504950e+01	3.960396e+00	0.0	9.702970e+01	3.960396e+00	0.0	9.900990e+01	3.960396e+00	0.0	1.009901e+02	3.960396e+00	0.0	1.029703e+02	3.960396e+00	0.0	1.049505e+02	3.960396e+00	0.0	1.069307e+02	3.960396e+00	0.0	1.089109e+02	3.960396e+00	0.0	1.108911e+02	3.960396e+00	0.0	1.128713e+02	3.960396e+00	0.0	1.148515e+02	3.960396e+00	0.0	1.168317e+02	3.960396e+00	0.0	1.188119e+02	3.960396e+00	0.0	1.207921e+02	3.960396e+00	0.0	1.227723e+02	3.960396e+00	0.0	1.247525e+02	3.960396e+00	0.0	1.267327e+02	3.960396e+00	0.0	1.287129e+02	3.960396e+00	0.0	1.306931e+02	3.960396e+00	0.0	1.326733e+02	3.960396e+00	0.0	1.346535e+02	3.960396e+00	0.0	1.366337e+02	3.960396e+00	0.0	1.386139e+02	3.960396e+00	0.0	1.405941e+02	3.960396e+00	0.0	1.425743e+02	3.960396e+00	0.0	1.445545e+02	3.960396e+00	0.0	1.465347e+02	3.960396e+00	0.0	1.485149e+02	3.960396e+00	0.0	1.504950e+02	3.960396e+00	0.0	1.524752e+02	3.960396e+00	0.0	1.544554e+02	3.960396e+00	0.0	1.564356e+02	3.960396e+00	0.0	1.584158e+02	3.960396e+00	0.0	1.603960e+02	3.960396e+00	0.0	1.623762e+02	3.960396e+00	0.0	1.643564e+02	3.960396e+00	0.0	1.663366e+02	3.960396e+00	0.0	1.683168e+02	3.960396e+00	0.0	1.702970e+02	3.960396e+00	0.0	1.722772e+02	3.960396e+00	0.0	1.742574e+02	3.960396e+00	0.0	1.762376e+02	3.960396e+00	0.0	1.782178e+02	3.960396e+00	0.0	1.801980e+02	3.960396e+00	0.0	1.821782e+02	3.960396e+00	0.0	1.841584e+02	3.960396e+00	0.0	1.861386e+02	3.960396e+00	0.0	1.881188e+02	3.960396e+00	0.0	1.900990e+02	3.960396e+00	0.0	1.920792e+02	3.960396e+00	0.0	1.940594e+02	3.960396e+00	0.0	1.960396e+02	3.960396e+00	0.0	1.980198e+02	3.960396e+00	0.0	2.000000e+02	3.960396e+00	0.0	0.000000e+00	5.940594e+00	0.0	1.980198e+00	5.940594e+00	0.0	3.960396e+00	5.940594e+00	0.0	5.940594e+00	5.940594e+00	0.0	7.920792e+00	5.940594e+00	0.0	9.900990e+00	5.940594e+00	0.0	1.188119e+01	5.940594e+00	0.0	1.386139e+01	5.940594e+00	0.0	1.584158e+01	5.940594e+00	0.0	1.782178e+01	5.940594e+00	0.0	1.980198e+01	5.940594e+00	0.0	2.178218e+01	5.940594e+00	0.0	2.376238e+01	5.940594e+00	0.0	2.574257e+01	5.940594e+00	0.0	2.772277e+01	5.940594e+00	0.0	2.970297e+01	5.940594e+00	0.0	3.168317e+01	5.940594e+00	0.0	3.366337e+01	5.940594e+00	0.0	3.564356e+01	5.940594e+00	0.0	3.762376e+01	5.940594e+00	0.0	3.960396e+01	5.940594e+00	0.0	4.158416e+01	5.940594e+00	0.0	4.356436e+01	5.940594e+00	0.0	4.554455e+01	5.940594
[...]
POINT_DATA 10404

SCALARS Height double 1
LOOKUP_TABLE default
4.000000e+00	4.000000e+00	4.000000e+00	4.000000e+00	4.000000e+00	4.000000e+00	4.000000e+00	4.000000e+00	4.000000e+00	4.000000e+00	4.000000e+00	4.000000e+00	4.000000e+00	4.000000e+00	4.000000e+00	4.000000e+00	4.000000e+00	3.999999e+00	3.999995e+00	3.999977e+00	3.999900e+00	3.999570e+00	3.998145e+00	3.991941e+00	3.964673e+00	3.893044e+00	3.797042e+00	3.690933e+00	3.580211e+00	3.467768e+00	3.355607e+00	3.244999e+00	3.136490e+00	3.030252e+00	2.926255e+00	2.824379e+00	2.724597e+00	2.626863e+00	2.531163e+00	2.437456e+00	2.345619e+00	2.255559e+00	2.167169e+00	2.080327e+00	1.994896e+00	1.910159e+00	1.852054e+00	1.828750e+00	1.819868e+00	1.820590e+00	1.843630e+00	1.865828e+00	1.876579e+00	1.887690e+00	1.900634e+00	1.913115e+00	1.925508e+00	1.937070e+00	1.947526e+00	1.956453e+00	1.964256e+00	1.972642e+00	1.981081e+00	1.988753e+00	1.993438e+00	1.993585e+00	1.991489e+00	1.987428e+00	1.982592e+00	1.979093e+00	1.984204e+00	1.996634e+00	2.005237e+00	1.978783e+00	1.717322e+00	1.182948e+00	1.007484e+00	1.000186e+00	1.000005e+00	1.000000e+00	1.000000e+00	1.000000e+00	1.000000e+00	1.000000e+00	1.000000e+00	1.000000e+00	1.000000e+00	1.000000e+00	1.000000e+00	1.000000e+00	1.000000e+00	1.000000e+00	1.000000e+00	1.000000e+00	1.000000e+00	1.000000e+00	1.000000e+00	1.000000e+00	1.000000e+00	1.000000e+00	1.000000e+00	1.000000e+00	4.000000e+00	4.000000e+00	4.000000e+00	4.000000e+00	4.000000e+00	4.000000e+00	4.000000e+00	4.000000e+00	4.000000e+00	4.000000e+00	4.000000e+00	4.000000e+00	4.000000e+00	4.000000e+00	4.000000e+00	4.000000e+00	4.000000e+00	4.000000e+00	3.999998e+00	3.999991e+00	3.999959e+00	3.999820e+00	3.999167e+00	3.995610e+00	3.969828e+00	3.890357e+00	3.794605e+00	3.689879e+00	3.580493e+00	3.468883e+00	3.357512e+00	3.247607e+00	3.139840e+00	3.034257e+00	2.930733e+00	2.829366e+00	2.730024e+00	2.632674e+00	2.537296e+00	2.443814e+00	2.352162e+00	2.262270e+00	2.174034e+00	2.087320e+00	2.001990e+00	1.917341e+00	1.859530e+00	1.836216e+00	1.827256e+00	1.827396e+00	1.850323e+00	1.872508e+00	1.883209e+00	1.893492e+00	1.904858e+00	1.915894e+00	1.927382e+00	1.938646e+00	1.949132e+00	1.958197e+00	1.966049e+00	1.974060e+00	1.981915e+00	1.989056e+00	1.994380e+00	1.996356e+00	1.995845e+00	1.993081e+00	1.989407e+00	1.987221e+00	1.992684e+00	2.004621e+00	2.011440e+00	1.995397e+00	1.725125e+00	1.122681e+00	1.001627e+00	1.000019e+00	1.000000e+00	1.000000e+00	1.000000e+00	1.000000e+00	1.000000e+00	1.000000e+00	1.000000e+00	1.000000e+00	1.000000e+00	1.000000e+00	1.000000e+00	1.000000e+00	1.000000e+00	1.000000e+00	1.000000e+00	1.000000e+00	1.000000e+00	1.000000e+00	1.000000e+00	1.000000e+00	1.000000e+00	1.000000e+00	1.000000e+00	1.000000e+00	4.000000e+00	4.000000e+00	4.000000e+00	4.000000e+00	4.000000e+00	4.000000e+00	4.000000e+00	4.000000e+00	4.000000e+00	4.000000e+00	4.000000e+00	4.000000e+00	4.000000e+00	4.000000e+00	4.000000e+00	4.000000e+00	4.000000e+00	4.000000e+00	3.999999e+00	3.999996e+00	3.999982e+00	3.999916e+00	3.999538e+00	3.996769e+00	3.970426e+00	3.882876e+00	3.782891e+00	3.676906e+00	3.567947e+00	3.456273e+00	3.344248e+00	3.233976e+00	3.125649e+00	3.019730e+00	2.916030e+00	2.814544e+00	2.715158e+00	2.617790e+00	2.522377e+00	2.428930e+00	2.337373e+00	2.247564e+00	2.159380e+00	2.072711e+00	1.987351e+00	1.902937e+00	1.847147e+00	1.824583e+00	1.815838e+00	1.817465e+00	1.840426e+00	1.862169e+00	1.874319e+00	1.885764e+00	1.896915e+00	1.906384e+00	1.915747e+00	1.924895e+00	1.933822e+00	1.941859e+00	1.949592e+00	1.957235e+00	1.964429e+00	1.971794e+00	1.979660e+00	1.986528e+00	1.992342e+00	1.994261e+00	1.995507e+00	1.997478e+00	2.000914e+00	2.006882e+00	2.010206e+00	1.991205e+00	1.696584e+00	1.104949e+00	1.001155e+00	1.000010e+00	1.000000e+00	1.000000e+00	1.000000e+00	1.000000e+00	1.000000e+00	1.000000e+00	1.000000e+00	1.000000e+00	1.000000e+00	1.000000e+00	1.000000e+00	1.000000e+00	1.000000e+00	1.000000e+00	1.000000e+00	1.000000e+00	1.000000e+00	1.000000e+00	1.000000e+00	1.000000e+00	1.000000e+00	1.000000e+00	1.000000e+00	1.000000e+00	4.000000e+00	4.000000e+00	4.000000e+00	4.000000e+00	4.000000e+00	4.000000e+00	4.000000e+00	4.000000e+00	4.000000e+00	4.000000e+00	4.000000e+00	4.000000e+00	4.000000e+00	4.000000e+00	4.000000e+00	4.000000e+00	4.000000e+00	4.000000e+00	4.000000e+00	3.999999e+00	3.999993e+00	3.999958e+00	3.999691e+00	3.997209e+00	3.969475e+00	3.874348e+00	3.768260e+00	3.661440e+00	3.553151e+00	3.444846e+00	3.335347e+00	3.226200e+00	3.119091e+00	3.014226e+00	2.911640e+00	2.811136e+00	2.712651e+00	2.616073e+00	2.521365e+00	2.428482e+00	2.337346e+00	2.247880e+00	2.159970e+00	2.073513e+00	1.988311e+00	1.904506e+00	1.850771e+00	1.828742e+00	1.819965e+00	1.822504e+00	1.845025e+00	1.865396e+00	1.878097e+00	1.889916e+00	1.900122e+00	1.908256e+00	1.916150e+00	1.923912e+00	1.931431e+00	1.938236e+00	1.944525e+00	1.950520e+00	1.955542e+00	1.960884e+00	1.968629e+00	1.977053e+00	1.987485e+00	1.998875e+00	2.009109e+00	2.013890e+00	2.016709e+00	2.019764e+00	2.020280e+00	1.992317e+00	1.660194e+00	1.085635e+00	1.000845e+00	1.000008e+00	1.000000e+00	1.000000e+00	1.000000e+00	1.000000e+00	1.000000e+00	1.000000e+00	1.000000e+00	1.000000e+00	1.000000e+00	1.000000e+00	1.000000e+00	1.000000e+00	1.000000e+00	1.000000e+00	1.000000e+00	1.000000e+00	1.000000e+00	1.000000e+00	1.000000e+00	1.000000e+00	1.000000e+00	1.000000e+00	1.000000e+00	1.000000e+00	4.000000e+00	4.000000e+00	4.000000e+00	4.000000e+00	4.000000e+00	4.000000e+00	4.000000e+00	4.000000e+00	4.000000e+00	4.000000e+00	4.000000e+00	4.000000e+00	4.000000e+00	4.000000e+00	4.000000e+00	4.000000e+00	4.000000e+00	4.000000e+00	4.000000e+00	3.999999e+00	3.999996e+00	3.999971e+00	3.999728e+00	3.996997e+00	3.965312e+00	3.861819e+00	3.750111e+00	3.640623e+00	3.534033e+00	3.427208e+00	3.321087e+00	3.214093e+00	3.107977e+00	3.003817e+00	2.901896e+00	2.802087e+00	2.704228e+00	2.608257e+00	2.514118e+00	2.421745e+00	2.331051e+00	2.241973e+00	2.154406e+00	2.068215e+00	1.983292e+00	1.900239e+00	1.849695e+00	1.828820e+00	1.820263e+00	1.824722e+00	1.846505e+00	1.864618e+00	1.877243e+00	1.889516e+00	1.899822e+00	1.908014e+00	1.915735e+00	1.923223e+00	1.930346e+00	1.936978e+00	1.943045e+00	1.948702e+00	1.953130e+00	1.958537e+00	1.966039e+00	1.977218e+00	1.989440e+00	2.002612e+00	2.017051e+00	2.029752e+00	2.035098e+00	2.036015e+00	2.027858e+00	1.983108e+00	1.617974e+00	1.064977e+00	1.000617e+00	1.000007e+00	1.000000e+00	1.000000e+00	1.000000e+00	1.000000e+00	1.000000e+00	1.000000e+00	1.000000e+00	1.000000e+00	1.000000e+00	1.000000e+00	1.000000e+00	1.000000e+00	1.000000e+00	1.000000e+00	1.000000e+00	1.000000e+00	1.000000e+00	1.000000e+00	1.000000e+00	1.000000e+00	1.000000e+00	1.000000e+00	1.000000e+00	1.000000e+00	4.000000e+00	4.000000e+00	4.000000e+00	4.000000e+00	4.000000e+00	4.000000e+00	4.000000e+00	4.000000e+00	4.000000e+00	4.000000e+00	4.000000e+00	4.000000e+00	4.000000e+00	4.000000e+00	4.000000e+00	4.000000e+00	4.000000e+00	4.000000e+00	4.000000e+00	4.000000e+00	3.999997e+00	3.999969e+00	3.999659e+00	3.996070e+00	3.955524e+00	3.844530e+00	3.729359e+00	3.617466e+00	3.509997e+00	3.405517e+00	3.301538e+00	3.198359e+00	3.094332e+00	2.991182e+00	2.889910e+00	2.790733e+00	2.693497e+00	2.598149e+00	2.504636e+00	2.412857e+00	2.322721e+00	2.234142e+00	2.147044e+00	2.061249e+00	1.976748e+00	1.894669e+00	1.848559e+00	1.829510e+00	1.821467e+00	1.830061e+00	1.850967e+00	1.864310e+00	1.875484e+00	1.887855e+00	1.898913e+00	1.907782e+00	1.915864e+00	1.923774e+00	1.931198e+00	1.937748e+00	1.944147e+00	1.950289e+00	1.956736e+00	1.964100e+00	1.971506e+00	1.979584e+00	1.990776e+00	2.004177e+00	2.023720e+00	2.035740e+00	2.038690e+00	2.037336e+00	2.026223e+00	1.971338e+00	1.575660e+00	1.049362e+00	1.000490e+00	1.000005e+00	1.000000e+00	1.000000e+00	1.000000e+00	1.000000e+00	1.000000e+00	1.000000e+00	1.000000e+00	1.000000e+00	1.000000e+00	1.000000e+00	1.000000e+00	1.000000e+00	1.000000e+00	1.000000e+00	1.000000e+00	1.000000e+00	1.000000e+00	1.000000e+00	1.000000e+00	1.000000e+00	1.000000e+00	1.000000e+00	1.000000e+00	1.000000e+00	4.000000e+00	4.000000e+00	4.000000e+00	4.000000e+00	4.000000e+00	4.000000e+00	4.000000e+00	4.000000e+00	4.000000e+00	4.000000e+00	4.000000e+00	4.000000e+00	4.000000e+00	4.000000e+00	4.000000e+00	4.000000e+00	4.000000e+00	4.000000e+00	4.000000e+00	4.000000e+00	3.999996e+00	3.999956e+00	3.999491e+00	3.994005e+00	3.937440e+00	3.822182e+00	3.705755e+00	3.592227e+00	3.483630e+00	3.379491e+00	3.277991e+00	3.177287e+00	3.077179e+00	2.976079e+00	2.875814e+00	2.777268e+00	2.680659e+00	2.585931e+00	2.493050e+00	2.401892e+00	2.312374e+00	2.224383e+00	2.137865e+00	2.052615e+00	1.968452e+00	1.888112e+00	1.847015e+00	1.830436e+00	1.823808e+00	1.837043e+00	1.856729e+00	1.864747e+00	1.873417e+00	1.885379e+00	1.897238e+00	1.907634e+00	1.916935e+00	1.925904e+00	1.934340e+00	1.941281e+00	1.948360e+00	1.955933e+00	1.963974e+00	1.971700e+00	1.977703e+00	1.981689e+00	1.993171e+00	2.005757e+00	2.014958e+00	2.021241e+00	2.024202e+00	2.026508e+00	2.019844e+00	1.962166e+00	1.536484e+00	1.034153e+00	1.000361e+00	1.000004e+00	1.000000e+00	1.000000e+00	1.000000e+00	1.000000e+00	1.000000e+00	1.000000e+00	1.000000e+00	1.000000e+00	1.000000e+00	1.000000e+00	1.000000e+00	1.000000e+00	1.000000e+00	1.000000e+00	1.000000e+00	1.000000e+00	1.000000e+00	1.000000e+00	1.000000e+00	1.000000e+00	1.000000e+00	1.000000e+00	1.000000e+00	1.000000e+00	4.000000e+00	4.000000e+00	4.000000e+00	4.000000e+00	4.000000e+00	4.000000e+00	4.000000e+00	4.000000e+00	4.000000e+00	4.000000e+00	4.000000e+00	4.000000e+00	4.000000e+00	4.000000e+00	4.000000e+00	4.000000e+00	4.000000e+00	4.000000e+00	4.000000e+00	3.999999e+00	3.999994e+00	3.999924e+00	3.999100e+00	3.989779e+00	3.909145e+00	3.794507e+00	3.678745e+00	3.564732e+00	3.455438e+00	3.350941e+00	3.250701e+00	3.152188e+00	3.054305e+00	2.957401e+00	2.859165e+00	2.761737e+00	2.665857e+00	2.571784e+00	2.479541e+00	2.389029e+00	2.300167e+00	2.212844e+00	2.126999e+00	2.042414e+00	1.958398e+00	1.881328e+00	1.845055e+00	1.831329e+00	1.827097e+00	1.844700e+00	1.863099e+00	1.868463e+00	1.874263e+00	1.884419e+00	1.896856e+00	1.908933e+00	1.920044e+00	1.929996e+00	1.939419e+00	1.947195e+00	1.954910e+00	1.962877e+00	1.971370e+00	1.978021e+00	1.984438e+00	1.990772e+00	1.995227e+00	1.998375e+00	2.001422e+00	2.003926e+00	2.007162e+00	2.011209e+00	2.009620e+00	1.951967e+00	1.495408e+00	1.019524e+00	1.000256e+00	1.000002e+00	1.000000e+00	1.000000e+00	1.000000e+00	1.000000e+00	1.000000e+00	1.000000e+00	1.000000e+00	1.000000e+00	1.000000e+00	1.000000e+00	1.000000e+00	1.000000e+00	1.000000e+00	1.000000e+00	1.000000e+00	1.000000e+00	1.000000e+00	1.000000e+00	1.000000e+00	1.000000e+00	1.000000e+00	1.000000e+00	1.000000e+00	1.000000e+00	4.000000e+00	4.000000e+00	4.000000e+00	4.000000e+00	4.000000e+00	4.000000e+00	4.000000e+00	4.000000e+00	4.000000e+00	4.000000e+00	4.000000e+00	4.000000e+00	4.000000e+00	4.000000e+00	4.000000e+00	4.000000e+00	4.000000e+00	4.000000e+00	4.000000e+00	3.999999e+00	3.999988e+00	3.999852e+00	3.998223e+00	3.976605e+00	3.876207e+00	3.761156e+00	3.647117e+00	3.534506e+00	3.425659e+00	3.321088e+00	3.220756e+00	3.123722e+00	3.027655e+00	2.932661e+00	2.838692e+00	2.743715e+00	2.649065e+00	2.555850e+00	2.464308e+00	2.374446e+00	2.286254e+00	2.199658e+00	2.114578e+00	2.030821e+00	1.946973e+00	1.874614e+00	1.843046e+00	1.831873e+00	1.830376e+00	1.851966e+00	1.870474e+00	1.875623e+00	1.881773e+00	1.891243e+00	1.901743e+00	1.913143e+00	1.924665e+00	1.935405e+00	1.945591e+00	1.953727e+00	1.962455e+00	1.970299e+00	1.978243e+00	1.984770e+00	1.989833e+00	1.991327e+00	1.991718e+00	1.991811e+00	1.989304e+00	1.988677e+00	1.993087e+00	2.001090e+00	2.004110e+00	1.939908e+00	1.428367e+00	1.013863e+00	1.000158e+00	1.000001e+00	1.000000e+00	1.000000e+00	1.000000e+00	1.000000e+00	1.000000e+00	1.000000e+00	1.000000e+00	1.000000e+00	1.000000e+00	1.000000e+00	1.000000e+00	1.000000e+00	1.000000e+00	1.000000e+00	1.000000e+00	1.000000e+00	1.000000e+00	1.000000e+00	1.000000e+00	1.000000e+00	1.000000e+00	1.000000e+00	1.000000e+00	1.000000e+00	4.000000e+00	4.000000e+00	4.000000e+00	4.000000e+00	4.000000e+00	4.000000e+00	4.000000e+00	4.000000e+00	4.000000e+00	4.000000e+00	4.000000e+00	4.000000e+00	4.000000e+00	4.000000e+00	4.000000e+00	4.000000e+00	4.000000e+00	4.000000e+00	4.000000e+00	3.999998e+00	3.999974e+00	3.999673e+00	3.995866e+00	3.951331e+00	3.838828e+00	3.722735e+00	3.610011e+00	3.500562e+00	3.393945e+00	3.290287e+00	3.189693e+00	3.092458e+00	2.998083e+00	2.904450e+00	2.812158e+00	2.721198e+00	2.629685e+00	2.537910e+00	2.447383e+00	2.358309e+00	2.270870e+00	2.185077e+00	2.100801e+00	2.018073e+00	1.934475e+00	1.868405e+00	1.841273e+00	1.832238e+00	1.834694e+00	1.859739e+00	1.880387e+00	1.887972e+00	1.895277e+00	1.903887e+00	1.912280e+00	1.920630e+00	1.929574e+00	1.939530e+00	1.949327e+00	1.957557e+00	1.965489e+00	1.971398e+00	1.975975e+00	1.979773e+00	1.983333e+00	1.984912e+00	1.986550e+00	1.985498e+00	1.982595e+00	1.980376e+00	1.985567e+00	2.001610e+00	2.007136e+00	1.919897e+00	1.342299e+00	1.008862e+00	1.000089e+00	1.000001e+00	1.000000e+00	1.000000e+00	1.000000e+00	1.000000e+00	1.000000e+00	1.000000e+00	1.000000e+00	1.000000e+00	1.000000e+00	1.000000e+00	1.000000e+00	1.000000e+00	1.000000e+00	1.000000e+00	1.000000e+00	1.000000e+00	1.000000e+00	1.000000e+00	1.000000e+00	1.000000e+00	1.000000e+00	1.000000e+00	1.000000e+00	1.000000e+00	4.000000e+00	4.000000e+00	4.000000e+00	4.000000e+00	4.000000e+00	4.000000e+00	4.000000e+00	4.000000e+00	4.000000e+00	4.000000e+00	4.000000e+00	4.000000e+00	4.000000e+00	4.000000e+00	4.000000e+00	4.000000e+00	4.000000e+00	4.000000e+00	4.000000e+00	3.999995e+00	3.999937e+00	3.999200e+00	3.990408e+00	3.910234e+00	3.794881e+00	3.679437e+00	3.568584e+00	3.462635e+00	3.359522e+00	3.258206e+00	3.158335e+00	3.060662e+00	2.965746e+00	2.873553e+00	2.782530e+00	2.692868e+00	2.604619e+00	2.516814e+00	2.428348e+00	2.340505e+00	2.254061e+00	2.169207e+00	2.085867e+00	2.004365e+00	1.921900e+00	1.863088e+00	1.840886e+00	1.833802e+00	1.841902e+00	1.870326e+00	1.893833e+00	1.903326e+00	1.910795e+00	1.918860e+00	1.925830e+00	1.932484e+00	1.939099e+00	1.945076e+00	1.950872e+00	1.956970e+00	1.962347e+00	1.966338e+00	1.969266e+00	1.971578e+00	1.976438e+00	1.979818e+00	1.982263e+00	1.980363e+00	1.977271e+00	1.979396e+00	1.992672e+00	2.012681e+00	2.013971e+00	1.878712e+00	1.246587e+00	1.004956e+00	1.000042e+00	1.000000e+00	1.000000e+00	1.000000e+00	1.000000e+00	1.000000e+00	1.000000e+00	1.000000e+00	1.000000e+00	1.000000e+00	1.000000e+00	1.000000e+00	1.000000e+00	1.000000e+00	1.000000e+00	1.000000e+00	1.000000e+00	1.000000e+00	1.000000e+00	1.000000e+00	1.000000e+00	1.000000e+00	1.000000e+00	1.000000e+00	1.000000e+00	1.000000e+00	4.000000e+00	4.000000e+00	4.000000e+00	4.000000e+00	4.000000e+00	4.000000e+00	4.000000e+00	4.000000e+00	4.000000e+00	4.000000e+00	4.000000e+00	4.000000e+00	4.000000e+00	4.000000e+00	4.000000e+00	4.000000e+00	4.000000e+00	4.000000e+00	3.999999e+00	3.999987e+00	3.999833e+00	3.997844e+00	3.970988e+00	3.862403e+00	3.744093e+00	3.631084e+00	3.523775e+00	3.421488e+00	3.321900e+00	3.223477e+00	3.125615e+00	3.028809e+00	2.933727e+00	2.841163e+00	2.750906e+00	2.662265e+00	2.575099e+00	2.489303e+00	2.404541e+00	2.319808e+00	2.235120e+00	2.151662e+00	2.069633e+00	1.989595e+00	1.909775e+00	1.859323e+00	1.842456e+00	1.837855e+00	1.853183e+00	1.881947e+00	1.905514e+00	1.916165e+00	1.924602e+00	1.933075e+00	1.939418e+00	1.945457e+00	1.951255e+00	1.955941e+00	1.958409e+00	1.960503e+00	1.962554e+00	1.965462e+00	1.966612e+00	1.970232e+00	1.973840e+00	1.977200e+00	1.978557e+00	1.978093e+00	1.981848e+00	1.994500e+00	2.009973e+00	2.024135e+00	2.017974e+00	1.800615e+00	1.159364e+00	1.002203e+00	1.000017e+00	1.000000e+00	1.000000e+00	1.000000e+00	1.000000e+00	1.000000e+00	1.000000e+00	1.000000e+00	1.000000e+00	1.000000e+00	1.000000e+00	1.000000e+00	1.000000e+00	1.000000e+00	1.000000e+00	1.000000e+00	1.000000e+00	1.000000e+00	1.000000e+00	1.000000e+00	1.000000e+00	1.000000e+00	1.000000e+00	1.000000e+00	1.000000e+00	1.000000e+00	4.000000e+00	4.000000e+00	4.000000e+00	4.000000e+00	4.000000e+00	4.000000e+00	4.000000e+00	4.000000e+00	4.000000e+00	4.000000e+00	4.000000e+00	4.000000e+00	4.000000e+00	4.000000e+00	4.000000e+00	4.000000e+00	4.000000e+00	4.000000e+00	3.999997e+00	3.999962e+00	3.999505e+00	3.993583e+00	3.928035e+00	3.807235e+00	3.688460e+00	3.579197e+00	3.476469e+00	3.377641e+00	3.281023e+00	3.185470e+00	3.090517e+00	2.995580e+00	2.901397e+00	2.808611e+00	2.718340e+00	2.630315e+00	2.543995e+00	2.459276e+00	2.375899e+00	2.293683e+00	2.212302e+00	2.131203e+00	2.051339e+00	1.973074e+00	1.898433e+00	1.858057e+00	1.846331e+00	1.845358e+00	1.864435e+00	1.890435e+00	1.912744e+00	1.923296e+00	1.931084e+00	1.939528e+00	1.948318e+00	1.956781e+00	1.963662e+00	1.969388e+00	1.972009e+00	1.972996e+00	1.973928e+00	1.975249e+00	1.975438e+00	1.977191e+00	1.977787e+00	1.980082e+00	1.983874e+00	1.989825e+00	2.000075e+00	2.012227e+00	2.027208e+00	2.032887e+00	2.012791e+00	1.685419e+00	1.089151e+00	1.000810e+00	1.000008e+00	1.000000e+00	1.000000e+00	1.000000e+00	1.000000e+00	1.000000e+00	1.000000e+00	1.000000e+00	1.000000e+00	1.000000e+00	1.000000e+00	1.000000e+00	1.000000e+00	1.000000e+00	1.000000e+00	1.000000e+00	1.000000e+00	1.000000e+00	1.000000e+00	1.000000e+00	1.000000e+00	1.000000e+00	1.000000e+00	1.000000e+00	1.000000e+00	1.000000e+00	4.000000e+00	4.000000e+00	4.000000e+00	4.000000e+00	4.000000e+00	4.000000e+00	4.000000e+00	4.000000e+00	4.000000e+00	4.000000e+00	4.000000e+00	4.000000e+00	4.000000e+00	4.000000e+00	4.000000e+00	4.000000e+00	4.000000e+00	3.999999e+00	3.999990e+00	3.999874e+00	3.998367e+00	3.976324e+00	3.865410e+00	3.743157e+00	3.629413e+00	3.525477e+00	3.427075e+00	3.331354e+00	3.237179e+00	3.144118e+00	3.051983e+00	2.959652e+00	2.867947e+00	2.776285e+00	2.685933e+00	2.597728e+00	2.511831e+00	2.427812e+00	2.345483e+00	2.264567e+00	2.185037e+00	2.106737e+00	2.029809e+00	1.953587e+00	1.888983e+00	1.859659e+00	1.851964e+00	1.854557e+00	1.872821e+00	1.894651e+00	1.914580e+00	1.925244e+00	1.931843e+00	1.938745e+00	1.945895e+00	1.955685e+00	1.968387e+00	1.980238e+00	1.986791e+00	1.989520e+00	1.990497e+00	1.991489e+00	1.991686e+00	1.992098e+00	1.991777e+00	1.993198e+00	1.996468e+00	2.005434e+00	2.017297e+00	2.030918e+00	2.037186e+00	2.035766e+00	1.989769e+00	1.555067e+00	1.033681e+00	1.000336e+00	1.000003e+00	1.000000e+00	1.000000e+00	1.000000e+00	1.000000e+00	1.000000e+00	1.000000e+00	1.000000e+00	1.000000e+00	1.000000e+00	1.000000e+00	1.000000e+00	1.000000e+00	1.000000e+00	1.000000e+00	1.000000e+00	1.000000e+00	1.000000e+00	1.000000e+00	1.000000e+00	1.000000e+00	1.000000e+00	1.000000e+00	1.000000e+00	1.000000e+00	1.000000e+00	4.000000e+00	4.000000e+00	4.000000e+00	4.000000e+00	4.000000e+00	4.000000e+00	4.000000e+00	4.000000e+00	4.000000e+00	4.000000e+00	4.000000e+00	4.000000e+00	4.000000e+00	4.000000e+00	4.000000e+00	4.000000e+00	4.000000e+00	3.999997e+00	3.999965e+00	3.999517e+00	3.993347e+00	3.922740e+00	3.795326e+00	3.675531e+00	3.568608e+00	3.470163e+00	3.375557e+00	3.282657e+00	3.190691e+00	3.099744e+00	3.009782e+00	2.920813e+00	2.831370e+00	2.742642e+00	2.653704e+00	2.565993e+00	2.479938e+00	2.396007e+00	2.314031e+00	2.233872e+00	2.155535e+00	2.078933e+00	2.004669e+00	1.932157e+00	1.882177e+00	1.862467e+00	1.856357e+00	1.861477e+00	1.876765e+00	1.894178e+00	1.911337e+00	1.922673e+00	1.928726e+00	1.934408e+00	1.940159e+00	1.947389e+00	1.957974e+00	1.970083e+00	1.986324e+00	1.999171e+00	2.008169e+00	2.010045e+00	2.010513e+00	2.010204e+00	2.008140e+00	2.010436e+00	2.015706e+00	2.025714e+00	2.033079e+00	2.036182e+00	2.035602e+00	2.027745e+00	1.945894e+00	1.405111e+00	1.012400e+00	1.000141e+00	1.000001e+00	1.000000e+00	1.000000e+00	1.000000e+00	1.000000e+00	1.000000e+00	1.000000e+00	1.000000e+00	1.000000e+00	1.000000e+00	1.000000e+00	1.000000e+00	1.000000e+00	1.000000e+00	1.000000e+00	1.000000e+00	1.000000e+00	1.000000e+00	1.000000e+00	1.000000e+00	1.000000e+00	1.000000e+00	1.000000e+00	1.000000e+00	1.000000e+00	1.000000e+00	4.000000e+00	4.000000e+00	4.000000e+00	4.000000