# vtk DataFile Version 3.0
vtk output
ASCII
DATASET STRUCTURED_GRID
DIMENSIONS 102 102 1
POINTS 10404 double
0.000000e+00	0.000000e+00	0.0	1.980198e+00	0.000000e+00	0.0	3.960396e+00	0.000000e+00	0.0	5.940594e+00	0.000000e+00	0.0	7.920792e+00	0.000000e+00	0.0	9.900990e+00	0.000000e+00	0.0	1.188119e+01	0.000000e+00	0.0	1.386139e+01	0.000000e+00	0.0	1.584158e+01	0.000000e+00	0.0	1.782178e+01	0.000000e+00	0.0	1.980198e+01	0.000000e+00	0.0	2.178218e+01	0.000000e+00	0.0	2.376238e+01	0.000000e+00	0.0	2.574257e+01	0.000000e+00	0.0	2.772277e+01	0.000000e+00	0.0	2.970297e+01	0.000000e+00	0.0	3.168317e+01	0.000000e+00	0.0	3.366337e+01	0.000000e+00	0.0	3.564356e+01	0.000000e+00	0.0	3.762376e+01	0.000000e+00	0.0	3.960396e+01	0.000000e+00	0.0	4.158416e+01	0.000000e+00	0.0	4.356436e+01	0.000000e+00	0.0	4.554455e+01	0.000000e+00	0.0	4.752475e+01	0.000000e+00	0.0	4.950495e+01	0.000000e+00	0.0	5.148515e+01	0.000000e+00	0.0	5.346535e+01	0.000000e+00	0.0	5.544554e+01	0.000000e+00	0.0	5.742574e+01	0.000000e+00	0.0	5.940594e+01	0.000000e+00	0.0	6.138614e+01	0.000000e+00	0.0	6.336634e+01	0.000000e+00	0.0	6.534653e+01	0.000000e+00	0.0	6.732673e+01	0.000000e+00	0.0	6.930693e+01	0.000000e+00	0.0	7.128713e+01	0.000000e+00	0.0	7.326733e+01	0.000000e+00	0.0	7.524752e+01	0.000000e+00	0.0	7.722772e+01	0.000000e+00	0.0	7.920792e+01	0.000000e+00	0.0	8.118812e+01	0.000000e+00	0.0	8.316832e+01	0.000000e+00	0.0	8.514851e+01	0.000000e+00	0.0	8.712871e+01	0.000000e+00	0.0	8.910891e+01	0.000000e+00	0.0	9.108911e+01	0.000000e+00	0.0	9.306931e+01	0.000000e+00	0.0	9.504950e+01	0.000000e+00	0.0	9.702970e+01	0.000000e+00	0.0	9.900990e+01	0.000000e+00	0.0	1.009901e+02	0.000000e+00	0.0	1.029703e+02	0.000000e+00	0.0	1.049505e+02	0.000000e+00	0.0	1.069307e+02	0.000000e+00	0.0	1.089109e+02	0.000000e+00	0.0	1.108911e+02	0.000000e+00	0.0	1.128713e+02	0.000000e+00	0.0	1.148515e+02	0.000000e+00	0.0	1.168317e+02	0.000000e+00	0.0	1.188119e+02	0.000000e+00	0.0	1.207921e+02	0.000000e+00	0.0	1.227723e+02	0.000000e+00	0.0	1.247525e+02	0.000000e+00	0.0	1.267327e+02	0.000000e+00	0.0	1.287129e+02	0.000000e+00	0.0	1.306931e+02	0.000000e+00	0.0	1.326733e+02	0.000000e+00	0.0	1.346535e+02	0.000000e+00	0.0	1.366337e+02	0.000000e+00	0.0	1.386139e+02	0.000000e+00	0.0	1.405941e+02	0.000000e+00	0.0	1.425743e+02	0.000000e+00	0.0	1.445545e+02	0.000000e+00	0.0	1.465347e+02	0.000000e+00	0.0	1.485149e+02	0.000000e+00	0.0	1.504950e+02	0.000000e+00	0.0	1.524752e+02	0.000000e+00	0.0	1.544554e+02	0.000000e+00	0.0	1.564356e+02	0.000000e+00	0.0	1.584158e+02	0.000000e+00	0.0	1.603960e+02	0.000000e+00	0.0	1.623762e+02	0.000000e+00	0.0	1.643564e+02	0.000000e+00	0.0	1.663366e+02	0.000000e+00	0.0	1.683168e+02	0.000000e+00	0.0	1.702970e+02	0.000000e+00	0.0	1.722772e+02	0.000000e+00	0.0	1.742574e+02	0.000000e+00	0.0	1.762376e+02	0.000000e+00	0.0	1.782178e+02	0.000000e+00	0.0	1.801980e+02	0.000000e+00	0.0	1.821782e+02	0.000000e+00	0.0	1.841584e+02	0.000000e+00	0.0	1.861386e+02	0.000000e+00	0.0	1.881188e+02	0.000000e+00	0.0	1.900990e+02	0.000000e+00	0.0	1.920792e+02	0.000000e+00	0.0	1.940594e+02	0.000000e+00	0.0	1.960396e+02	0.000000e+00	0.0	1.980198e+02	0.000000e+00	0.0	2.000000e+02	0.000000e+00	0.0	0.000000e+00	1.980198e+00	0.0	1.980198e+00	1.980198e+00	0.0	3.960396e+00	1.980198e+00	0.0	5.940594e+00	1.980198e+00	0.0	7.920792e+00	1.980198e+00	0.0	9.900990e+00	1.980198e+00	0.0	1.188119e+01	1.980198e+00	0.0	1.386139e+01	1.980198e+00	0.0	1.584158e+01	1.980198e+00	0.0	1.782178e+01	1.980198e+00	0.0	1.980198e+01	1.980198e+00	0.0	2.178218e+01	1.980198e+00	0.0	2.376238e+01	1.980198e+00	0.0	2.574257e+01	1.980198e+00	0.0	2.772277e+01	1.980198e+00	0.0	2.970297e+01	1.980198e+00	0.0	3.168317e+01	1.980198e+00	0.0	3.366337e+01	1.980198e+00	0.0	3.564356e+01	1.980198e+00	0.0	3.762376e+01	1.980198e+00	0.0	3.960396e+01	1.980198e+00	0.0	4.158416e+01	1.980198e+00	0.0	4.356436e+01	1.980198e+00	0.0	4.554455e+01	1.980198e+00	0.0	4.752475e+01	1.980198e+00	0.0	4.950495e+01	1.980198e+00	0.0	5.148515e+01	1.980198e+00	0.0	5.346535e+01	1.980198e+00	0.0	5.544554e+01	1.980198e+00	0.0	5.742574e+01	1.980198e+00	0.0	5.940594e+01	1.980198e+00	0.0	6.138614e+01	1.980198e+00	0.0	6.336634e+01	1.980198e+00	0.0	6.534653e+01	1.980198e+00	0.0	6.732673e+01	1.980198e+00	0.0	6.930693e+01	1.980198e+00	0.0	7.128713e+01	1.980198e+00	0.0	7.326733e+01	1.980198e+00	0.0	7.524752e+01	1.980198e+00	0.0	7.722772e+01	1.980198e+00	0.0	7.920792e+01	1.980198e+00	0.0	8.118812e+01	1.980198e+00	0.0	8.316832e+01	1.980198e+00	0.0	8.514851e+01	1.980198e+00	0.0	8.712871e+01	1.980198e+00	0.0	8.910891e+01	1.980198e+00	0.0	9.108911e+01	1.980198e+00	0.0	9.306931e+01	1.980198e+00	0.0	9.504950e+01	1.980198e+00	0.0	9.702970e+01	1.980198e+00	0.0	9.900990e+01	1.980198e+00	0.0	1.009901e+02	1.980198e+00	0.0	1.029703e+02	1.980198e+00	0.0	1.049505e+02	1.980198e+00	0.0	1.069307e+02	1.980198e+00	0.0	1.089109e+02	1.980198e+00	0.0	1.108911e+02	1.980198e+00	0.0	1.128713e+02	1.980198e+00	0.0	1.148515e+02	1.980198e+00	0.0	1.168317e+02	1.980198e+00	0.0	1.188119e+02	1.980198e+00	0.0	1.207921e+02	1.980198e+00	0.0	1.227723e+02	1.980198e+00	0.0	1.247525e+02	1.980198e+00	0.0	1.267327e+02	1.980198e+00	0.0	1.287129e+02	1.980198e+00	0.0	1.306931e+02	1.980198e+00	0.0	1.326733e+02	1.980198e+00	0.0	1.346535e+02	1.980198e+00	0.0	1.366337e+02	1.980198e+00	0.0	1.386139e+02	1.980198e+00	0.0	1.405941e+02	1.980198e+00	0.0	1.425743e+02	1.980198e+00	0.0	1.445545e+02	1.980198e+00	0.0	1.465347e+02	1.980198e+00	0.0	1.485149e+02	1.980198e+00	0.0	1.504950e+02	1.980198e+00	0.0	1.524752e+02	1.980198e+00	0.0	1.544554e+02	1.980198e+00	0.0	1.564356e+02	1.980198e+00	0.0	1.584158e+02	1.980198e+00	0.0	1.603960e+02	1.980198e+00	0.0	1.623762e+02	1.980198e+00	0.0	1.643564e+02	1.980198e+00	0.0	1.663366e+02	1.980198e+00	0.0	1.683168e+02	1.980198e+00	0.0	1.702970e+02	1.980198e+00	0.0	1.722772e+02	1.980198e+00	0.0	1.742574e+02	1.980198e+00	0.0	1.762376e+02	1.980198e+00	0.0	1.782178e+02	1.980198e+00	0.0	1.801980e+02	1.980198e+00	0.0	1.821782e+02	1.980198e+00	0.0	1.841584e+02	1.980198e+00	0.0	1.861386e+02	1.980198e+00	0.0	1.881188e+02	1.980198e+00	0.0	1.900990e+02	1.980198e+00	0.0	1.920792e+02	1.980198e+00	0.0	1.940594e+02	1.980198e+00	0.0	1.960396e+02	1.980198e+00	0.0	1.980198e+02	1.980198e+00	0.0	2.000000e+02	1.980198e+00	0.0	0.000000e+00	3.960396e+00	0.0	1.980198e+00	3.960396e+00	0.0	3.960396e+00	3.960396e+00	0.0	5.940594e+00	3.960396e+00	0.0	7.920792e+00	3.960396e+00	0.0	9.900990e+00	3.960396e+00	0.0	1.188119e+01	3.960396e+00	0.0	1.386139e+01	3.960396e+00	0.0	1.584158e+01	3.960396e+00	0.0	1.782178e+01	3.960396e+00	0.0	1.980198e+01	3.960396e+00	0.0	2.178218e+01	3.960396e+00	0.0	2.376238e+01	3.960396e+00	0.0	2.574257e+01	3.960396e+00	0.0	2.772277e+01	3.960396e+00	0.0	2.970297e+01	3.960396e+00	0.0	3.168317e+01	3.960396e+00	0.0	3.366337e+01	3.960396e+00	0.0	3.564356e+01	3.960396e+00	0.0	3.762376e+01	3.960396e+00	0.0	3.960396e+01	3.960396e+00	0.0	4.158416e+01	3.960396e+00	0.0	4.356436e+01	3.960396e+00	0.0	4.554455e+01	3.960396e+00	0.0	4.752475e+01	3.960396e+00	0.0	4.950495e+01	3.960396e+00	0.0	5.148515e+01	3.960396e+00	0.0	5.346535e+01	3.960396e+00	0.0	5.544554e+01	3.960396e+00	0.0	5.742574e+01	3.960396e+00	0.0	5.940594e+01	3.960396e+00	0.0	6.138614e+01	3.960396e+00	0.0	6.336634e+01	3.960396e+00	0.0	6.534653e+01	3.960396e+00	0.0	6.732673e+01	3.960396e+00	0.0	6.930693e+01	3.960396e+00	0.0	7.128713e+01	3.960396e+00	0.0	7.326733e+01	3.960396e+00	0.0	7.524752e+01	3.960396e+00	0.0	7.722772e+01	3.960396e+00	0.0	7.920792e+01	3.960396e+00	0.0	8.118812e+01	3.960396e+00	0.0	8.316832e+01	3.960396e+00	0.0	8.514851e+01	3.960396e+00	0.0	8.712871e+01	3.960396e+00	0.0	8.910891e+01	3.960396e+00	0.0	9.108911e+01	3.960396e+00	0.0	9.306931e+01	3.960396e+00	0.0	9.504950e+01	3.960396e+00	0.0	9.702970e+01	3.960396e+00	0.0	9.900990e+01	3.960396e+00	0.0	1.009901e+02	3.960396e+00	0.0	1.029703e+02	3.960396e+00	0.0	1.049505e+02	3.960396e+00	0.0	1.069307e+02	3.960396e+00	0.0	1.089109e+02	3.960396e+00	0.0	1.108911e+02	3.960396e+00	0.0	1.128713e+02	3.960396e+00	0.0	1.148515e+02	3.960396e+00	0.0	1.168317e+02	3.960396e+00	0.0	1.188119e+02	3.960396e+00	0.0	1.207921e+02	3.960396e+00	0.0	1.227723e+02	3.960396e+00	0.0	1.247525e+02	3.960396e+00	0.0	1.267327e+02	3.960396e+00	0.0	1.287129e+02	3.960396e+00	0.0	1.306931e+02	3.960396e+00	0.0	1.326733e+02	3.960396e+00	0.0	1.346535e+02	3.960396e+00	0.0	1.366337e+02	3.960396e+00	0.0	1.386139e+02	3.960396e+00	0.0	1.405941e+02	3.960396e+00	0.0	1.425743e+02	3.960396e+00	0.0	1.445545e+02	3.960396e+00	0.0	1.465347e+02	3.960396e+00	0.0	1.485149e+02	3.960396e+00	0.0	1.504950e+02	3.960396e+00	0.0	1.524752e+02	3.960396e+00	0.0	1.544554e+02	3.960396e+00	0.0	1.564356e+02	3.960396e+00	0.0	1.584158e+02	3.960396e+00	0.0	1.603960e+02	3.960396e+00	0.0	1.623762e+02	3.960396e+00	0.0	1.643564e+02	3.960396e+00	0.0	1.663366e+02	3.960396e+00	0.0	1.683168e+02	3.960396e+00	0.0	1.702970e+02	3.960396e+00	0.0	1.722772e+02	3.960396e+00	0.0	1.742574e+02	3.960396e+00	0.0	1.762376e+02	3.960396e+00	0.0	1.782178e+02	3.960396e+00	0.0	1.801980e+02	3.960396e+00	0.0	1.821782e+02	3.960396e+00	0.0	1.841584e+02	3.960396e+00	0.0	1.861386e+02	3.960396e+00	0.0	1.881188e+02	3.960396e+00	0.0	1.900990e+02	3.960396e+00	0.0	1.920792e+02	3.960396e+00	0.0	1.940594e+02	3.960396e+00	0.0	1.960396e+02	3.960396e+00	0.0	1.980198e+02	3.960396e+00	0.0	2.000000e+02	3.960396e+00	0.0	0.000000e+00	5.940594e+00	0.0	1.980198e+00	5.940594e+00	0.0	3.960396e+00	5.940594e+00	0.0	5.940594e+00	5.940594e+00	0.0	7.920792e+00	5.940594e+00	0.0	9.900990e+00	5.940594e+00	0.0	1.188119e+01	5.940594e+00	0.0	1.386139e+01	5.940594e+00	0.0	1.584158e+01	5.940594e+00	0.0	1.782178e+01	5.940594e+00	0.0	1.980198e+01	5.940594e+00	0.0	2.178218e+01	5.940594e+00	0.0	2.376238e+01	5.940594e+00	0.0	2.574257e+01	5.940594e+00	0.0	2.772277e+01	5.940594e+00	0.0	2.970297e+01	5.940594e+00	0.0	3.168317e+01	5.940594e+00	0.0	3.366337e+01	5.940594e+00	0.0	3.564356e+01	5.940594e+00	0.0	3.762376e+01	5.940594e+00	0.0	3.960396e+01	5.940594e+00	0.0	4.158416e+01	5.940594e+00	0.0	4.356436e+01	5.940594e+00	0.0	4.554455e+01	5.940594
[...]
POINT_DATA 10404

SCALARS Height double 1
LOOKUP_TABLE default
4.000000e+00	4.000000e+00	4.000000e+00	4.000000e+00	4.000000e+00	4.000000e+00	4.000000e+00	4.000000e+00	4.000000e+00	4.000000e+00	4.000000e+00	4.000000e+00	4.000000e+00	3.999999e+00	3.999997e+00	3.999986e+00	3.999938e+00	3.999733e+00	3.998839e+00	3.994957e+00	3.977691e+00	3.921618e+00	3.837222e+00	3.740873e+00	3.639164e+00	3.535336e+00	3.431435e+00	3.328853e+00	3.228391e+00	3.130268e+00	3.034489e+00	2.940954e+00	2.849528e+00	2.760085e+00	2.672534e+00	2.586781e+00	2.502741e+00	2.420355e+00	2.339537e+00	2.260266e+00	2.182446e+00	2.105981e+00	2.030811e+00	1.956777e+00	1.883962e+00	1.813592e+00	1.777711e+00	1.763205e+00	1.756863e+00	1.767842e+00	1.793687e+00	1.813782e+00	1.824854e+00	1.838157e+00	1.851450e+00	1.863103e+00	1.874071e+00	1.884046e+00	1.893088e+00	1.901175e+00	1.909468e+00	1.918287e+00	1.926683e+00	1.935294e+00	1.943142e+00	1.950832e+00	1.960414e+00	1.971379e+00	1.982656e+00	1.993054e+00	1.998897e+00	2.000735e+00	1.995685e+00	1.988018e+00	1.983270e+00	1.980398e+00	1.960108e+00	1.807392e+00	1.311686e+00	1.020732e+00	1.000612e+00	1.000016e+00	1.000000e+00	1.000000e+00	1.000000e+00	1.000000e+00	1.000000e+00	1.000000e+00	1.000000e+00	1.000000e+00	1.000000e+00	1.000000e+00	1.000000e+00	1.000000e+00	1.000000e+00	1.000000e+00	1.000000e+00	1.000000e+00	1.000000e+00	1.000000e+00	1.000000e+00	1.000000e+00	4.000000e+00	4.000000e+00	4.000000e+00	4.000000e+00	4.000000e+00	4.000000e+00	4.000000e+00	4.000000e+00	4.000000e+00	4.000000e+00	4.000000e+00	4.000000e+00	4.000000e+00	4.000000e+00	3.999999e+00	3.999994e+00	3.999975e+00	3.999890e+00	3.999496e+00	3.997446e+00	3.983527e+00	3.920038e+00	3.834736e+00	3.739481e+00	3.639384e+00	3.536500e+00	3.433457e+00	3.331786e+00	3.232060e+00	3.134579e+00	3.039349e+00	2.946274e+00	2.855222e+00	2.766088e+00	2.678789e+00	2.593243e+00	2.509375e+00	2.427138e+00	2.346459e+00	2.267304e+00	2.189582e+00	2.113196e+00	2.038103e+00	1.964115e+00	1.891336e+00	1.821160e+00	1.785379e+00	1.770796e+00	1.764378e+00	1.774863e+00	1.800765e+00	1.820738e+00	1.831034e+00	1.843520e+00	1.856149e+00	1.867747e+00	1.878900e+00	1.889089e+00	1.898373e+00	1.906746e+00	1.915352e+00	1.924268e+00	1.933060e+00	1.941853e+00	1.949979e+00	1.958058e+00	1.966548e+00	1.976866e+00	1.987156e+00	1.995494e+00	2.002655e+00	2.003483e+00	1.997685e+00	1.990113e+00	1.986372e+00	1.985192e+00	1.970823e+00	1.834277e+00	1.254322e+00	1.006328e+00	1.000079e+00	1.000001e+00	1.000000e+00	1.000000e+00	1.000000e+00	1.000000e+00	1.000000e+00	1.000000e+00	1.000000e+00	1.000000e+00	1.000000e+00	1.000000e+00	1.000000e+00	1.000000e+00	1.000000e+00	1.000000e+00	1.000000e+00	1.000000e+00	1.000000e+00	1.000000e+00	1.000000e+00	1.000000e+00	4.000000e+00	4.000000e+00	4.000000e+00	4.000000e+00	4.000000e+00	4.000000e+00	4.000000e+00	4.000000e+00	4.000000e+00	4.000000e+00	4.000000e+00	4.000000e+00	4.000000e+00	4.000000e+00	3.999999e+00	3.999998e+00	3.999989e+00	3.999950e+00	3.999736e+00	3.998265e+00	3.984805e+00	3.914483e+00	3.823100e+00	3.726322e+00	3.626036e+00	3.523581e+00	3.420342e+00	3.318482e+00	3.218631e+00	3.121127e+00	3.025881e+00	2.932786e+00	2.841715e+00	2.752562e+00	2.665228e+00	2.579636e+00	2.495750e+00	2.413530e+00	2.332947e+00	2.253888e+00	2.176276e+00	2.100018e+00	2.025069e+00	1.951258e+00	1.878452e+00	1.809441e+00	1.775241e+00	1.761373e+00	1.755473e+00	1.768172e+00	1.793851e+00	1.813336e+00	1.823941e+00	1.835759e+00	1.846982e+00	1.857467e+00	1.868314e+00	1.878756e+00	1.888440e+00	1.897204e+00	1.905863e+00	1.914462e+00	1.922933e+00	1.931538e+00	1.939903e+00	1.947753e+00	1.954484e+00	1.961042e+00	1.967283e+00	1.974581e+00	1.982218e+00	1.986245e+00	1.988915e+00	1.990808e+00	1.991743e+00	1.991397e+00	1.979134e+00	1.826001e+00	1.221543e+00	1.004663e+00	1.000043e+00	1.000000e+00	1.000000e+00	1.000000e+00	1.000000e+00	1.000000e+00	1.000000e+00	1.000000e+00	1.000000e+00	1.000000e+00	1.000000e+00	1.000000e+00	1.000000e+00	1.000000e+00	1.000000e+00	1.000000e+00	1.000000e+00	1.000000e+00	1.000000e+00	1.000000e+00	1.000000e+00	1.000000e+00	4.000000e+00	4.000000e+00	4.000000e+00	4.000000e+00	4.000000e+00	4.000000e+00	4.000000e+00	4.000000e+00	4.000000e+00	4.000000e+00	4.000000e+00	4.000000e+00	4.000000e+00	4.000000e+00	4.000000e+00	3.999999e+00	3.999996e+00	3.999976e+00	3.999834e+00	3.998570e+00	3.984440e+00	3.907342e+00	3.809150e+00	3.710378e+00	3.611003e+00	3.511597e+00	3.411445e+00	3.311100e+00	3.212525e+00	3.116203e+00	3.022028e+00	2.929851e+00	2.839577e+00	2.751116e+00	2.664374e+00	2.579297e+00	2.495867e+00	2.414058e+00	2.333810e+00	2.255029e+00	2.177669e+00	2.101649e+00	2.026922e+00	1.953353e+00	1.880584e+00	1.812913e+00	1.780132e+00	1.766806e+00	1.761291e+00	1.775424e+00	1.800422e+00	1.818874e+00	1.829596e+00	1.840843e+00	1.850922e+00	1.860193e+00	1.870246e+00	1.880460e+00	1.890245e+00	1.899143e+00	1.907684e+00	1.916045e+00	1.924214e+00	1.932343e+00	1.940130e+00	1.946872e+00	1.951921e+00	1.954461e+00	1.956822e+00	1.959909e+00	1.964630e+00	1.971933e+00	1.980717e+00	1.989950e+00	1.998892e+00	2.005133e+00	1.995781e+00	1.810201e+00	1.194781e+00	1.003583e+00	1.000031e+00	1.000000e+00	1.000000e+00	1.000000e+00	1.000000e+00	1.000000e+00	1.000000e+00	1.000000e+00	1.000000e+00	1.000000e+00	1.000000e+00	1.000000e+00	1.000000e+00	1.000000e+00	1.000000e+00	1.000000e+00	1.000000e+00	1.000000e+00	1.000000e+00	1.000000e+00	1.000000e+00	1.000000e+00	4.000000e+00	4.000000e+00	4.000000e+00	4.000000e+00	4.000000e+00	4.000000e+00	4.000000e+00	4.000000e+00	4.000000e+00	4.000000e+00	4.000000e+00	4.000000e+00	4.000000e+00	4.000000e+00	4.000000e+00	4.000000e+00	3.999998e+00	3.999984e+00	3.999856e+00	3.998464e+00	3.981511e+00	3.895428e+00	3.791632e+00	3.689637e+00	3.591430e+00	3.493612e+00	3.396347e+00	3.298456e+00	3.201126e+00	3.105725e+00	3.012403e+00	2.920995e+00	2.831409e+00	2.743573e+00	2.657395e+00	2.572823e+00	2.489843e+00	2.408437e+00	2.328570e+00	2.250154e+00	2.173136e+00	2.097450e+00	2.023023e+00	1.949777e+00	1.877074e+00	1.811582e+00	1.780906e+00	1.768635e+00	1.763934e+00	1.780157e+00	1.804367e+00	1.821094e+00	1.832191e+00	1.843195e+00	1.852690e+00	1.861103e+00	1.869952e+00	1.879151e+00	1.888423e+00	1.897092e+00	1.905320e+00	1.913080e+00	1.920668e+00	1.928413e+00	1.935540e+00	1.941173e+00	1.944426e+00	1.945221e+00	1.944812e+00	1.944849e+00	1.950520e+00	1.959167e+00	1.974091e+00	1.989611e+00	2.001131e+00	2.011469e+00	2.004790e+00	1.786147e+00	1.163824e+00	1.002501e+00	1.000021e+00	1.000000e+00	1.000000e+00	1.000000e+00	1.000000e+00	1.000000e+00	1.000000e+00	1.000000e+00	1.000000e+00	1.000000e+00	1.000000e+00	1.000000e+00	1.000000e+00	1.000000e+00	1.000000e+00	1.000000e+00	1.000000e+00	1.000000e+00	1.000000e+00	1.000000e+00	1.000000e+00	1.000000e+00	4.000000e+00	4.000000e+00	4.000000e+00	4.000000e+00	4.000000e+00	4.000000e+00	4.000000e+00	4.000000e+00	4.000000e+00	4.000000e+00	4.000000e+00	4.000000e+00	4.000000e+00	4.000000e+00	4.000000e+00	4.000000e+00	3.999998e+00	3.999983e+00	3.999815e+00	3.997876e+00	3.973886e+00	3.878063e+00	3.771043e+00	3.666697e+00	3.566924e+00	3.471048e+00	3.375599e+00	3.281486e+00	3.186556e+00	3.092425e+00	2.999960e+00	2.909359e+00	2.820541e+00	2.733423e+00	2.647929e+00	2.563997e+00	2.481597e+00	2.400712e+00	2.321323e+00	2.243362e+00	2.166779e+00	2.091523e+00	2.017470e+00	1.944606e+00	1.871898e+00	1.809592e+00	1.781536e+00	1.770656e+00	1.767705e+00	1.786523e+00	1.809050e+00	1.823317e+00	1.835384e+00	1.847308e+00	1.857485e+00	1.866349e+00	1.874969e+00	1.883247e+00	1.891380e+00	1.898715e+00	1.905830e+00	1.912577e+00	1.919307e+00	1.925885e+00	1.931858e+00	1.936450e+00	1.938816e+00	1.940326e+00	1.940652e+00	1.946498e+00	1.950927e+00	1.957245e+00	1.972993e+00	1.991596e+00	2.003286e+00	2.013913e+00	2.005764e+00	1.751294e+00	1.135210e+00	1.001762e+00	1.000015e+00	1.000000e+00	1.000000e+00	1.000000e+00	1.000000e+00	1.000000e+00	1.000000e+00	1.000000e+00	1.000000e+00	1.000000e+00	1.000000e+00	1.000000e+00	1.000000e+00	1.000000e+00	1.000000e+00	1.000000e+00	1.000000e+00	1.000000e+00	1.000000e+00	1.000000e+00	1.000000e+00	1.000000e+00	4.000000e+00	4.000000e+00	4.000000e+00	4.000000e+00	4.000000e+00	4.000000e+00	4.000000e+00	4.000000e+00	4.000000e+00	4.000000e+00	4.000000e+00	4.000000e+00	4.000000e+00	4.000000e+00	4.000000e+00	4.000000e+00	3.999998e+00	3.999975e+00	3.999711e+00	3.996505e+00	3.958876e+00	3.854885e+00	3.746599e+00	3.640819e+00	3.539506e+00	3.443419e+00	3.350979e+00	3.259098e+00	3.168322e+00	3.076213e+00	2.984895e+00	2.895126e+00	2.807087e+00	2.720739e+00	2.635999e+00	2.552800e+00	2.471086e+00	2.390826e+00	2.312006e+00	2.234577e+00	2.158503e+00	2.083760e+00	2.010139e+00	1.937768e+00	1.864871e+00	1.806894e+00	1.781803e+00	1.772262e+00	1.772035e+00	1.792823e+00	1.813321e+00	1.825255e+00	1.839079e+00	1.853313e+00	1.865763e+00	1.876271e+00	1.885579e+00	1.893382e+00	1.900283e+00	1.906266e+00	1.912270e+00	1.918096e+00	1.923872e+00	1.928210e+00	1.931665e+00	1.935330e+00	1.940202e+00	1.945230e+00	1.949677e+00	1.955452e+00	1.960093e+00	1.967439e+00	1.981504e+00	1.994247e+00	2.004733e+00	2.013945e+00	1.997794e+00	1.706303e+00	1.110368e+00	1.001275e+00	1.000011e+00	1.000000e+00	1.000000e+00	1.000000e+00	1.000000e+00	1.000000e+00	1.000000e+00	1.000000e+00	1.000000e+00	1.000000e+00	1.000000e+00	1.000000e+00	1.000000e+00	1.000000e+00	1.000000e+00	1.000000e+00	1.000000e+00	1.000000e+00	1.000000e+00	1.000000e+00	1.000000e+00	1.000000e+00	4.000000e+00	4.000000e+00	4.000000e+00	4.000000e+00	4.000000e+00	4.000000e+00	4.000000e+00	4.000000e+00	4.000000e+00	4.000000e+00	4.000000e+00	4.000000e+00	4.000000e+00	4.000000e+00	4.000000e+00	4.000000e+00	3.999996e+00	3.999955e+00	3.999453e+00	3.993411e+00	3.933416e+00	3.826189e+00	3.717313e+00	3.610991e+00	3.509448e+00	3.413400e+00	3.322330e+00	3.233146e+00	3.144718e+00	3.056561e+00	2.967172e+00	2.878524e+00	2.791298e+00	2.705711e+00	2.621735e+00	2.539307e+00	2.458347e+00	2.378799e+00	2.300632e+00	2.223823e+00	2.148338e+00	2.074200e+00	2.001096e+00	1.929293e+00	1.856487e+00	1.803467e+00	1.781765e+00	1.773506e+00	1.777234e+00	1.800127e+00	1.818940e+00	1.829691e+00	1.845207e+00	1.862057e+00	1.876802e+00	1.888498e+00	1.898255e+00	1.906252e+00	1.912576e+00	1.917533e+00	1.922360e+00	1.926357e+00	1.931047e+00	1.935395e+00	1.939118e+00	1.943825e+00	1.949380e+00	1.953792e+00	1.961044e+00	1.966947e+00	1.974902e+00	1.984156e+00	1.992612e+00	1.999107e+00	2.004378e+00	2.004704e+00	1.976327e+00	1.655930e+00	1.089149e+00	1.000902e+00	1.000009e+00	1.000000e+00	1.000000e+00	1.000000e+00	1.000000e+00	1.000000e+00	1.000000e+00	1.000000e+00	1.000000e+00	1.000000e+00	1.000000e+00	1.000000e+00	1.000000e+00	1.000000e+00	1.000000e+00	1.000000e+00	1.000000e+00	1.000000e+00	1.000000e+00	1.000000e+00	1.000000e+00	1.000000e+00	4.000000e+00	4.000000e+00	4.000000e+00	4.000000e+00	4.000000e+00	4.000000e+00	4.000000e+00	4.000000e+00	4.000000e+00	4.000000e+00	4.000000e+00	4.000000e+00	4.000000e+00	4.000000e+00	4.000000e+00	3.999999e+00	3.999992e+00	3.999904e+00	3.998827e+00	3.984790e+00	3.898742e+00	3.790236e+00	3.682124e+00	3.577041e+00	3.477262e+00	3.382011e+00	3.291327e+00	3.204016e+00	3.117294e+00	3.031697e+00	2.946109e+00	2.859373e+00	2.773325e+00	2.688586e+00	2.605400e+00	2.523747e+00	2.443564e+00	2.364783e+00	2.287345e+00	2.211225e+00	2.136394e+00	2.062926e+00	1.990467e+00	1.919219e+00	1.847286e+00	1.799552e+00	1.781417e+00	1.774509e+00	1.783481e+00	1.808904e+00	1.827672e+00	1.838360e+00	1.852881e+00	1.869101e+00	1.884639e+00	1.898191e+00	1.909247e+00	1.918098e+00	1.924586e+00	1.929138e+00	1.932913e+00	1.936566e+00	1.940872e+00	1.944325e+00	1.947377e+00	1.951972e+00	1.956686e+00	1.964185e+00	1.971688e+00	1.980849e+00	1.988916e+00	1.995927e+00	1.997809e+00	1.994896e+00	1.994055e+00	1.990616e+00	1.954097e+00	1.606894e+00	1.064447e+00	1.000588e+00	1.000006e+00	1.000000e+00	1.000000e+00	1.000000e+00	1.000000e+00	1.000000e+00	1.000000e+00	1.000000e+00	1.000000e+00	1.000000e+00	1.000000e+00	1.000000e+00	1.000000e+00	1.000000e+00	1.000000e+00	1.000000e+00	1.000000e+00	1.000000e+00	1.000000e+00	1.000000e+00	1.000000e+00	1.000000e+00	4.000000e+00	4.000000e+00	4.000000e+00	4.000000e+00	4.000000e+00	4.000000e+00	4.000000e+00	4.000000e+00	4.000000e+00	4.000000e+00	4.000000e+00	4.000000e+00	4.000000e+00	4.000000e+00	4.000000e+00	3.999999e+00	3.999982e+00	3.999773e+00	3.997115e+00	3.963905e+00	3.857995e+00	3.747181e+00	3.640762e+00	3.539505e+00	3.442929e+00	3.349479e+00	3.259130e+00	3.172030e+00	3.087239e+00	3.002916e+00	2.919897e+00	2.836902e+00	2.752888e+00	2.669465e+00	2.587210e+00	2.506382e+00	2.426983e+00	2.348988e+00	2.272315e+00	2.196946e+00	2.122850e+00	2.050108e+00	1.978483e+00	1.907772e+00	1.837588e+00	1.795818e+00	1.781109e+00	1.775949e+00	1.791787e+00	1.819792e+00	1.838342e+00	1.847108e+00	1.858894e+00	1.872321e+00	1.886531e+00	1.900459e+00	1.913981e+00	1.925855e+00	1.934250e+00	1.940189e+00	1.944456e+00	1.948048e+00	1.951084e+00	1.953488e+00	1.956875e+00	1.960861e+00	1.967090e+00	1.974468e+00	1.982857e+00	1.988794e+00	1.994344e+00	1.995600e+00	1.991761e+00	1.987882e+00	1.985637e+00	1.980563e+00	1.935627e+00	1.545813e+00	1.041088e+00	1.000397e+00	1.000004e+00	1.000000e+00	1.000000e+00	1.000000e+00	1.000000e+00	1.000000e+00	1.000000e+00	1.000000e+00	1.000000e+00	1.000000e+00	1.000000e+00	1.000000e+00	1.000000e+00	1.000000e+00	1.000000e+00	1.000000e+00	1.000000e+00	1.000000e+00	1.000000e+00	1.000000e+00	1.000000e+00	1.000000e+00	4.000000e+00	4.000000e+00	4.000000e+00	4.000000e+00	4.000000e+00	4.000000e+00	4.000000e+00	4.000000e+00	4.000000e+00	4.000000e+00	4.000000e+00	4.000000e+00	4.000000e+00	4.000000e+00	4.000000e+00	3.999996e+00	3.999952e+00	3.999385e+00	3.992342e+00	3.921992e+00	3.808840e+00	3.697552e+00	3.595203e+00	3.498887e+00	3.406052e+00	3.315269e+00	3.225786e+00	3.138606e+00	3.054163e+00	2.971612e+00	2.889829e+00	2.809238e+00	2.729040e+00	2.647899e+00	2.567096e+00	2.487308e+00	2.408792e+00	2.331631e+00	2.255771e+00	2.181206e+00	2.107924e+00	2.035952e+00	1.965357e+00	1.895142e+00	1.827789e+00	1.792663e+00	1.781687e+00	1.779703e+00	1.802000e+00	1.830137e+00	1.847002e+00	1.853819e+00	1.862745e+00	1.872646e+00	1.883623e+00	1.896171e+00	1.909691e+00	1.923080e+00	1.936322e+00	1.947327e+00	1.954590e+00	1.959205e+00	1.962555e+00	1.966175e+00	1.970892e+00	1.975192e+00	1.980190e+00	1.982405e+00	1.984986e+00	1.989012e+00	1.991242e+00	1.989193e+00	1.983624e+00	1.980718e+00	1.980514e+00	1.975426e+00	1.919226e+00	1.470264e+00	1.017905e+00	1.000235e+00	1.000002e+00	1.000000e+00	1.000000e+00	1.000000e+00	1.000000e+00	1.000000e+00	1.000000e+00	1.000000e+00	1.000000e+00	1.000000e+00	1.000000e+00	1.000000e+00	1.000000e+00	1.000000e+00	1.000000e+00	1.000000e+00	1.000000e+00	1.000000e+00	1.000000e+00	1.000000e+00	1.000000e+00	1.000000e+00	4.000000e+00	4.000000e+00	4.000000e+00	4.000000e+00	4.000000e+00	4.000000e+00	4.000000e+00	4.000000e+00	4.000000e+00	4.000000e+00	4.000000e+00	4.000000e+00	4.000000e+00	4.000000e+00	3.999999e+00	3.999989e+00	3.999856e+00	3.998123e+00	3.973585e+00	3.865711e+00	3.750077e+00	3.643769e+00	3.546984e+00	3.455506e+00	3.366302e+00	3.278278e+00	3.190814e+00	3.104499e+00	3.020129e+00	2.938015e+00	2.857422e+00	2.778013e+00	2.699782e+00	2.622301e+00	2.544261e+00	2.466207e+00	2.388943e+00	2.312792e+00	2.237850e+00	2.164168e+00	2.091796e+00	2.020667e+00	1.951226e+00	1.881275e+00	1.819286e+00	1.791373e+00	1.783430e+00	1.786907e+00	1.811601e+00	1.838094e+00	1.853099e+00	1.858285e+00	1.864843e+00	1.871918e+00	1.879682e+00	1.889006e+00	1.899563e+00	1.912196e+00	1.925802e+00	1.941471e+00	1.956943e+00	1.967175e+00	1.973282e+00	1.978214e+00	1.981842e+00	1.982873e+00	1.982818e+00	1.983161e+00	1.982430e+00	1.983868e+00	1.983839e+00	1.980126e+00	1.974570e+00	1.976144e+00	1.978640e+00	1.977016e+00	1.899361e+00	1.363194e+00	1.010437e+00	1.000115e+00	1.000001e+00	1.000000e+00	1.000000e+00	1.000000e+00	1.000000e+00	1.000000e+00	1.000000e+00	1.000000e+00	1.000000e+00	1.000000e+00	1.000000e+00	1.000000e+00	1.000000e+00	1.000000e+00	1.000000e+00	1.000000e+00	1.000000e+00	1.000000e+00	1.000000e+00	1.000000e+00	1.000000e+00	1.000000e+00	4.000000e+00	4.000000e+00	4.000000e+00	4.000000e+00	4.000000e+00	4.000000e+00	4.000000e+00	4.000000e+00	4.000000e+00	4.000000e+00	4.000000e+00	4.000000e+00	4.000000e+00	4.000000e+00	3.999997e+00	3.999961e+00	3.999476e+00	3.992921e+00	3.921102e+00	3.799806e+00	3.687263e+00	3.587703e+00	3.496618e+00	3.409309e+00	3.323408e+00	3.238161e+00	3.153303e+00	3.068735e+00	2.985133e+00	2.903218e+00	2.823331e+00	2.744921e+00	2.667877e+00	2.591983e+00	2.516987e+00	2.441942e+00	2.366745e+00	2.292134e+00	2.218410e+00	2.145810e+00	2.074501e+00	2.004409e+00	1.936138e+00	1.867220e+00	1.813403e+00	1.792865e+00	1.787246e+00	1.795547e+00	1.819050e+00	1.842937e+00	1.856779e+00	1.861063e+00	1.866003e+00	1.871188e+00	1.876673e+00	1.883226e+00	1.890490e+00	1.898006e+00	1.909265e+00	1.922118e+00	1.938786e+00	1.958198e+00	1.975038e+00	1.983362e+00	1.986330e+00	1.986653e+00	1.984857e+00	1.982370e+00	1.979201e+00	1.977418e+00	1.974548e+00	1.969545e+00	1.969799e+00	1.975470e+00	1.986236e+00	1.986372e+00	1.859991e+00	1.249602e+00	1.005177e+00	1.000045e+00	1.000000e+00	1.000000e+00	1.000000e+00	1.000000e+00	1.000000e+00	1.000000e+00	1.000000e+00	1.000000e+00	1.000000e+00	1.000000e+00	1.000000e+00	1.000000e+00	1.000000e+00	1.000000e+00	1.000000e+00	1.000000e+00	1.000000e+00	1.000000e+00	1.000000e+00	1.000000e+00	1.000000e+00	1.000000e+00	3.999999e+00	4.000000e+00	4.000000e+00	4.000000e+00	4.000000e+00	4.000000e+00	4.000000e+00	4.000000e+00	4.000000e+00	4.000000e+00	4.000000e+00	4.000000e+00	4.000000e+00	3.999998e+00	3.999985e+00	3.999813e+00	3.997450e+00	3.962509e+00	3.843489e+00	3.726197e+00	3.622843e+00	3.530283e+00	3.444019e+00	3.360293e+00	3.277404e+00	3.194867e+00	3.112656e+00	3.030559e+00	2.948933e+00	2.867923e+00	2.788322e+00	2.710402e+00	2.634188e+00	2.559443e+00	2.485918e+00	2.413303e+00	2.341043e+00	2.268719e+00	2.196833e+00	2.125752e+00	2.055793e+00	1.987125e+00	1.920091e+00	1.854590e+00	1.810875e+00	1.796640e+00	1.792722e+00	1.803583e+00	1.824225e+00	1.845143e+00	1.858693e+00	1.862971e+00	1.866874e+00	1.870891e+00	1.874872e+00	1.879497e+00	1.884461e+00	1.888924e+00	1.893871e+00	1.902052e+00	1.913696e+00	1.929539e+00	1.949680e+00	1.971151e+00	1.985403e+00	1.989245e+00	1.988420e+00	1.984137e+00	1.979392e+00	1.974710e+00	1.969161e+00	1.967161e+00	1.973040e+00	1.988145e+00	2.000406e+00	1.994424e+00	1.778445e+00	1.150844e+00	1.002036e+00	1.000015e+00	1.000000e+00	1.000000e+00	1.000000e+00	1.000000e+00	1.000000e+00	1.000000e+00	1.000000e+00	1.000000e+00	1.000000e+00	1.000000e+00	1.000000e+00	1.000000e+00	1.000000e+00	1.000000e+00	1.000000e+00	1.000000e+00	1.000000e+00	1.000000e+00	1.000000e+00	1.000000e+00	1.000000e+00	1.000000e+00	3.999997e+00	3.999999e+00	3.999999e+00	4.000000e+00	4.000000e+00	4.000000e+00	4.000000e+00	4.000000e+00	4.000000e+00	4.000000e+00	4.000000e+00	3.999999e+00	3.999997e+00	3.999985e+00	3.999880e+00	3.998684e+00	3.982407e+00	3.877829e+00	3.759281e+00	3.652409e+00	3.557700e+00	3.471239e+00	3.389142e+00	3.308628e+00	3.228571e+00	3.148659e+00	3.068952e+00	2.989770e+00	2.910406e+00	2.831482e+00	2.753017e+00	2.675730e+00	2.599803e+00	2.525463e+00	2.452853e+00	2.381617e+00	2.311351e+00	2.241680e+00	2.172190e+00	2.103215e+00	2.035065e+00	1.968391e+00	1.902876e+00	1.843806e+00	1.811361e+00	1.801079e+00	1.798381e+00	1.810192e+00	1.827813e+00	1.845916e+00	1.859567e+00	1.864718e+00	1.868361e+00	1.873165e+00	1.878513e+00	1.883886e+00	1.888842e+00	1.893288e+00	1.896554e+00	1.899300e+00	1.901432e+00	1.908393e+00	1.920740e+00	1.938426e+00	1.960579e+00	1.982381e+00	1.989432e+00	1.988852e+00	1.984264e+00	1.979371e+00	1.975729e+00	1.980977e+00	1.990390e+00	2.004131e+00	2.012400e+00	1.991881e+00	1.658123e+00	1.073978e+00	1.000594e+00	1.000006e+00	1.000000e+00	1.000000e+00	1.000000e+00	1.000000e+00	1.000000e+00	1.000000e+00	1.000000e+00	1.000000e+00	1.000000e+00	1.000000e+00	1.000000e+00	1.000000e+00	1.000000e+00	1.000000e+00	1.000000e+00	1.000000e+00	1.000000e+00	1.000000e+00	1.000000e+00	1.000000e+00	1.000000e+00	1.000000e+00	3.999986e+00	3.999994e+00	3.999998e+00	3.999999