# vtk DataFile Version 3.0
vtk output
ASCII
DATASET STRUCTURED_GRID
DIMENSIONS 102 102 1
POINTS 10404 double
0.000000e+00	0.000000e+00	0.0	1.980198e+00	0.000000e+00	0.0	3.960396e+00	0.000000e+00	0.0	5.940594e+00	0.000000e+00	0.0	7.920792e+00	0.000000e+00	0.0	9.900990e+00	0.000000e+00	0.0	1.188119e+01	0.000000e+00	0.0	1.386139e+01	0.000000e+00	0.0	1.584158e+01	0.000000e+00	0.0	1.782178e+01	0.000000e+00	0.0	1.980198e+01	0.000000e+00	0.0	2.178218e+01	0.000000e+00	0.0	2.376238e+01	0.000000e+00	0.0	2.574257e+01	0.000000e+00	0.0	2.772277e+01	0.000000e+00	0.0	2.970297e+01	0.000000e+00	0.0	3.168317e+01	0.000000e+00	0.0	3.366337e+01	0.000000e+00	0.0	3.564356e+01	0.000000e+00	0.0	3.762376e+01	0.000000e+00	0.0	3.960396e+01	0.000000e+00	0.0	4.158416e+01	0.000000e+00	0.0	4.356436e+01	0.000000e+00	0.0	4.554455e+01	0.000000e+00	0.0	4.752475e+01	0.000000e+00	0.0	4.950495e+01	0.000000e+00	0.0	5.148515e+01	0.000000e+00	0.0	5.346535e+01	0.000000e+00	0.0	5.544554e+01	0.000000e+00	0.0	5.742574e+01	0.000000e+00	0.0	5.940594e+01	0.000000e+00	0.0	6.138614e+01	0.000000e+00	0.0	6.336634e+01	0.000000e+00	0.0	6.534653e+01	0.000000e+00	0.0	6.732673e+01	0.000000e+00	0.0	6.930693e+01	0.000000e+00	0.0	7.128713e+01	0.000000e+00	0.0	7.326733e+01	0.000000e+00	0.0	7.524752e+01	0.000000e+00	0.0	7.722772e+01	0.000000e+00	0.0	7.920792e+01	0.000000e+00	0.0	8.118812e+01	0.000000e+00	0.0	8.316832e+01	0.000000e+00	0.0	8.514851e+01	0.000000e+00	0.0	8.712871e+01	0.000000e+00	0.0	8.910891e+01	0.000000e+00	0.0	9.108911e+01	0.000000e+00	0.0	9.306931e+01	0.000000e+00	0.0	9.504950e+01	0.000000e+00	0.0	9.702970e+01	0.000000e+00	0.0	9.900990e+01	0.000000e+00	0.0	1.009901e+02	0.000000e+00	0.0	1.029703e+02	0.000000e+00	0.0	1.049505e+02	0.000000e+00	0.0	1.069307e+02	0.000000e+00	0.0	1.089109e+02	0.000000e+00	0.0	1.108911e+02	0.000000e+00	0.0	1.128713e+02	0.000000e+00	0.0	1.148515e+02	0.000000e+00	0.0	1.168317e+02	0.000000e+00	0.0	1.188119e+02	0.000000e+00	0.0	1.207921e+02	0.000000e+00	0.0	1.227723e+02	0.000000e+00	0.0	1.247525e+02	0.000000e+00	0.0	1.267327e+02	0.000000e+00	0.0	1.287129e+02	0.000000e+00	0.0	1.306931e+02	0.000000e+00	0.0	1.326733e+02	0.000000e+00	0.0	1.346535e+02	0.000000e+00	0.0	1.366337e+02	0.000000e+00	0.0	1.386139e+02	0.000000e+00	0.0	1.405941e+02	0.000000e+00	0.0	1.425743e+02	0.000000e+00	0.0	1.445545e+02	0.000000e+00	0.0	1.465347e+02	0.000000e+00	0.0	1.485149e+02	0.000000e+00	0.0	1.504950e+02	0.000000e+00	0.0	1.524752e+02	0.000000e+00	0.0	1.544554e+02	0.000000e+00	0.0	1.564356e+02	0.000000e+00	0.0	1.584158e+02	0.000000e+00	0.0	1.603960e+02	0.000000e+00	0.0	1.623762e+02	0.000000e+00	0.0	1.643564e+02	0.000000e+00	0.0	1.663366e+02	0.000000e+00	0.0	1.683168e+02	0.000000e+00	0.0	1.702970e+02	0.000000e+00	0.0	1.722772e+02	0.000000e+00	0.0	1.742574e+02	0.000000e+00	0.0	1.762376e+02	0.000000e+00	0.0	1.782178e+02	0.000000e+00	0.0	1.801980e+02	0.000000e+00	0.0	1.821782e+02	0.000000e+00	0.0	1.841584e+02	0.000000e+00	0.0	1.861386e+02	0.000000e+00	0.0	1.881188e+02	0.000000e+00	0.0	1.900990e+02	0.000000e+00	0.0	1.920792e+02	0.000000e+00	0.0	1.940594e+02	0.000000e+00	0.0	1.960396e+02	0.000000e+00	0.0	1.980198e+02	0.000000e+00	0.0	2.000000e+02	0.000000e+00	0.0	0.000000e+00	1.980198e+00	0.0	1.980198e+00	1.980198e+00	0.0	3.960396e+00	1.980198e+00	0.0	5.940594e+00	1.980198e+00	0.0	7.920792e+00	1.980198e+00	0.0	9.900990e+00	1.980198e+00	0.0	1.188119e+01	1.980198e+00	0.0	1.386139e+01	1.980198e+00	0.0	1.584158e+01	1.980198e+00	0.0	1.782178e+01	1.980198e+00	0.0	1.980198e+01	1.980198e+00	0.0	2.178218e+01	1.980198e+00	0.0	2.376238e+01	1.980198e+00	0.0	2.574257e+01	1.980198e+00	0.0	2.772277e+01	1.980198e+00	0.0	2.970297e+01	1.980198e+00	0.0	3.168317e+01	1.980198e+00	0.0	3.366337e+01	1.980198e+00	0.0	3.564356e+01	1.980198e+00	0.0	3.762376e+01	1.980198e+00	0.0	3.960396e+01	1.980198e+00	0.0	4.158416e+01	1.980198e+00	0.0	4.356436e+01	1.980198e+00	0.0	4.554455e+01	1.980198e+00	0.0	4.752475e+01	1.980198e+00	0.0	4.950495e+01	1.980198e+00	0.0	5.148515e+01	1.980198e+00	0.0	5.346535e+01	1.980198e+00	0.0	5.544554e+01	1.980198e+00	0.0	5.742574e+01	1.980198e+00	0.0	5.940594e+01	1.980198e+00	0.0	6.138614e+01	1.980198e+00	0.0	6.336634e+01	1.980198e+00	0.0	6.534653e+01	1.980198e+00	0.0	6.732673e+01	1.980198e+00	0.0	6.930693e+01	1.980198e+00	0.0	7.128713e+01	1.980198e+00	0.0	7.326733e+01	1.980198e+00	0.0	7.524752e+01	1.980198e+00	0.0	7.722772e+01	1.980198e+00	0.0	7.920792e+01	1.980198e+00	0.0	8.118812e+01	1.980198e+00	0.0	8.316832e+01	1.980198e+00	0.0	8.514851e+01	1.980198e+00	0.0	8.712871e+01	1.980198e+00	0.0	8.910891e+01	1.980198e+00	0.0	9.108911e+01	1.980198e+00	0.0	9.306931e+01	1.980198e+00	0.0	9.504950e+01	1.980198e+00	0.0	9.702970e+01	1.980198e+00	0.0	9.900990e+01	1.980198e+00	0.0	1.009901e+02	1.980198e+00	0.0	1.029703e+02	1.980198e+00	0.0	1.049505e+02	1.980198e+00	0.0	1.069307e+02	1.980198e+00	0.0	1.089109e+02	1.980198e+00	0.0	1.108911e+02	1.980198e+00	0.0	1.128713e+02	1.980198e+00	0.0	1.148515e+02	1.980198e+00	0.0	1.168317e+02	1.980198e+00	0.0	1.188119e+02	1.980198e+00	0.0	1.207921e+02	1.980198e+00	0.0	1.227723e+02	1.980198e+00	0.0	1.247525e+02	1.980198e+00	0.0	1.267327e+02	1.980198e+00	0.0	1.287129e+02	1.980198e+00	0.0	1.306931e+02	1.980198e+00	0.0	1.326733e+02	1.980198e+00	0.0	1.346535e+02	1.980198e+00	0.0	1.366337e+02	1.980198e+00	0.0	1.386139e+02	1.980198e+00	0.0	1.405941e+02	1.980198e+00	0.0	1.425743e+02	1.980198e+00	0.0	1.445545e+02	1.980198e+00	0.0	1.465347e+02	1.980198e+00	0.0	1.485149e+02	1.980198e+00	0.0	1.504950e+02	1.980198e+00	0.0	1.524752e+02	1.980198e+00	0.0	1.544554e+02	1.980198e+00	0.0	1.564356e+02	1.980198e+00	0.0	1.584158e+02	1.980198e+00	0.0	1.603960e+02	1.980198e+00	0.0	1.623762e+02	1.980198e+00	0.0	1.643564e+02	1.980198e+00	0.0	1.663366e+02	1.980198e+00	0.0	1.683168e+02	1.980198e+00	0.0	1.702970e+02	1.980198e+00	0.0	1.722772e+02	1.980198e+00	0.0	1.742574e+02	1.980198e+00	0.0	1.762376e+02	1.980198e+00	0.0	1.782178e+02	1.980198e+00	0.0	1.801980e+02	1.980198e+00	0.0	1.821782e+02	1.980198e+00	0.0	1.841584e+02	1.980198e+00	0.0	1.861386e+02	1.980198e+00	0.0	1.881188e+02	1.980198e+00	0.0	1.900990e+02	1.980198e+00	0.0	1.920792e+02	1.980198e+00	0.0	1.940594e+02	1.980198e+00	0.0	1.960396e+02	1.980198e+00	0.0	1.980198e+02	1.980198e+00	0.0	2.000000e+02	1.980198e+00	0.0	0.000000e+00	3.960396e+00	0.0	1.980198e+00	3.960396e+00	0.0	3.960396e+00	3.960396e+00	0.0	5.940594e+00	3.960396e+00	0.0	7.920792e+00	3.960396e+00	0.0	9.900990e+00	3.960396e+00	0.0	1.188119e+01	3.960396e+00	0.0	1.386139e+01	3.960396e+00	0.0	1.584158e+01	3.960396e+00	0.0	1.782178e+01	3.960396e+00	0.0	1.980198e+01	3.960396e+00	0.0	2.178218e+01	3.960396e+00	0.0	2.376238e+01	3.960396e+00	0.0	2.574257e+01	3.960396e+00	0.0	2.772277e+01	3.960396e+00	0.0	2.970297e+01	3.960396e+00	0.0	3.168317e+01	3.960396e+00	0.0	3.366337e+01	3.960396e+00	0.0	3.564356e+01	3.960396e+00	0.0	3.762376e+01	3.960396e+00	0.0	3.960396e+01	3.960396e+00	0.0	4.158416e+01	3.960396e+00	0.0	4.356436e+01	3.960396e+00	0.0	4.554455e+01	3.960396e+00	0.0	4.752475e+01	3.960396e+00	0.0	4.950495e+01	3.960396e+00	0.0	5.148515e+01	3.960396e+00	0.0	5.346535e+01	3.960396e+00	0.0	5.544554e+01	3.960396e+00	0.0	5.742574e+01	3.960396e+00	0.0	5.940594e+01	3.960396e+00	0.0	6.138614e+01	3.960396e+00	0.0	6.336634e+01	3.960396e+00	0.0	6.534653e+01	3.960396e+00	0.0	6.732673e+01	3.960396e+00	0.0	6.930693e+01	3.960396e+00	0.0	7.128713e+01	3.960396e+00	0.0	7.326733e+01	3.960396e+00	0.0	7.524752e+01	3.960396e+00	0.0	7.722772e+01	3.960396e+00	0.0	7.920792e+01	3.960396e+00	0.0	8.118812e+01	3.960396e+00	0.0	8.316832e+01	3.960396e+00	0.0	8.514851e+01	3.960396e+00	0.0	8.712871e+01	3.960396e+00	0.0	8.910891e+01	3.960396e+00	0.0	9.108911e+01	3.960396e+00	0.0	9.306931e+01	3.960396e+00	0.0	9.504950e+01	3.960396e+00	0.0	9.702970e+01	3.960396e+00	0.0	9.900990e+01	3.960396e+00	0.0	1.009901e+02	3.960396e+00	0.0	1.029703e+02	3.960396e+00	0.0	1.049505e+02	3.960396e+00	0.0	1.069307e+02	3.960396e+00	0.0	1.089109e+02	3.960396e+00	0.0	1.108911e+02	3.960396e+00	0.0	1.128713e+02	3.960396e+00	0.0	1.148515e+02	3.960396e+00	0.0	1.168317e+02	3.960396e+00	0.0	1.188119e+02	3.960396e+00	0.0	1.207921e+02	3.960396e+00	0.0	1.227723e+02	3.960396e+00	0.0	1.247525e+02	3.960396e+00	0.0	1.267327e+02	3.960396e+00	0.0	1.287129e+02	3.960396e+00	0.0	1.306931e+02	3.960396e+00	0.0	1.326733e+02	3.960396e+00	0.0	1.346535e+02	3.960396e+00	0.0	1.366337e+02	3.960396e+00	0.0	1.386139e+02	3.960396e+00	0.0	1.405941e+02	3.960396e+00	0.0	1.425743e+02	3.960396e+00	0.0	1.445545e+02	3.960396e+00	0.0	1.465347e+02	3.960396e+00	0.0	1.485149e+02	3.960396e+00	0.0	1.504950e+02	3.960396e+00	0.0	1.524752e+02	3.960396e+00	0.0	1.544554e+02	3.960396e+00	0.0	1.564356e+02	3.960396e+00	0.0	1.584158e+02	3.960396e+00	0.0	1.603960e+02	3.960396e+00	0.0	1.623762e+02	3.960396e+00	0.0	1.643564e+02	3.960396e+00	0.0	1.663366e+02	3.960396e+00	0.0	1.683168e+02	3.960396e+00	0.0	1.702970e+02	3.960396e+00	0.0	1.722772e+02	3.960396e+00	0.0	1.742574e+02	3.960396e+00	0.0	1.762376e+02	3.960396e+00	0.0	1.782178e+02	3.960396e+00	0.0	1.801980e+02	3.960396e+00	0.0	1.821782e+02	3.960396e+00	0.0	1.841584e+02	3.960396e+00	0.0	1.861386e+02	3.960396e+00	0.0	1.881188e+02	3.960396e+00	0.0	1.900990e+02	3.960396e+00	0.0	1.920792e+02	3.960396e+00	0.0	1.940594e+02	3.960396e+00	0.0	1.960396e+02	3.960396e+00	0.0	1.980198e+02	3.960396e+00	0.0	2.000000e+02	3.960396e+00	0.0	0.000000e+00	5.940594e+00	0.0	1.980198e+00	5.940594e+00	0.0	3.960396e+00	5.940594e+00	0.0	5.940594e+00	5.940594e+00	0.0	7.920792e+00	5.940594e+00	0.0	9.900990e+00	5.940594e+00	0.0	1.188119e+01	5.940594e+00	0.0	1.386139e+01	5.940594e+00	0.0	1.584158e+01	5.940594e+00	0.0	1.782178e+01	5.940594e+00	0.0	1.980198e+01	5.940594e+00	0.0	2.178218e+01	5.940594e+00	0.0	2.376238e+01	5.940594e+00	0.0	2.574257e+01	5.940594e+00	0.0	2.772277e+01	5.940594e+00	0.0	2.970297e+01	5.940594e+00	0.0	3.168317e+01	5.940594e+00	0.0	3.366337e+01	5.940594e+00	0.0	3.564356e+01	5.940594e+00	0.0	3.762376e+01	5.940594e+00	0.0	3.960396e+01	5.940594e+00	0.0	4.158416e+01	5.940594e+00	0.0	4.356436e+01	5.940594e+00	0.0	4.554455e+01	5.940594
[...]
POINT_DATA 10404

SCALARS Height double 1
LOOKUP_TABLE default
4.000000e+00	4.000000e+00	4.000000e+00	4.000000e+00	4.000000e+00	4.000000e+00	4.000000e+00	4.000000e+00	4.000000e+00	4.000000e+00	4.000000e+00	4.000000e+00	4.000000e+00	4.000000e+00	3.999998e+00	3.999993e+00	3.999970e+00	3.999870e+00	3.999436e+00	3.997547e+00	3.989267e+00	3.954467e+00	3.880308e+00	3.787849e+00	3.687411e+00	3.583357e+00	3.478344e+00	3.373990e+00	3.271354e+00	3.171034e+00	3.073027e+00	2.977320e+00	2.883785e+00	2.792293e+00	2.702751e+00	2.615065e+00	2.529146e+00	2.444938e+00	2.362339e+00	2.281338e+00	2.201843e+00	2.123758e+00	2.047010e+00	1.971449e+00	1.897154e+00	1.824793e+00	1.786596e+00	1.771239e+00	1.764664e+00	1.774135e+00	1.799837e+00	1.820283e+00	1.831326e+00	1.844644e+00	1.858118e+00	1.870103e+00	1.881375e+00	1.891644e+00	1.900921e+00	1.909126e+00	1.917391e+00	1.926211e+00	1.934877e+00	1.943666e+00	1.951935e+00	1.960635e+00	1.971091e+00	1.981447e+00	1.991459e+00	1.998005e+00	2.000726e+00	1.997345e+00	1.989817e+00	1.983893e+00	1.982747e+00	1.978572e+00	1.930366e+00	1.620983e+00	1.129126e+00	1.004568e+00	1.000121e+00	1.000003e+00	1.000000e+00	1.000000e+00	1.000000e+00	1.000000e+00	1.000000e+00	1.000000e+00	1.000000e+00	1.000000e+00	1.000000e+00	1.000000e+00	1.000000e+00	1.000000e+00	1.000000e+00	1.000000e+00	1.000000e+00	1.000000e+00	1.000000e+00	1.000000e+00	1.000000e+00	1.000000e+00	4.000000e+00	4.000000e+00	4.000000e+00	4.000000e+00	4.000000e+00	4.000000e+00	4.000000e+00	4.000000e+00	4.000000e+00	4.000000e+00	4.000000e+00	4.000000e+00	4.000000e+00	4.000000e+00	3.999999e+00	3.999997e+00	3.999988e+00	3.999947e+00	3.999763e+00	3.998869e+00	3.993670e+00	3.957451e+00	3.877521e+00	3.785730e+00	3.686866e+00	3.584059e+00	3.479851e+00	3.376409e+00	3.274649e+00	3.174978e+00	3.077588e+00	2.982394e+00	2.889284e+00	2.798147e+00	2.708900e+00	2.621455e+00	2.535734e+00	2.451696e+00	2.369253e+00	2.288393e+00	2.209017e+00	2.131025e+00	2.054363e+00	1.978852e+00	1.904638e+00	1.832444e+00	1.794367e+00	1.778961e+00	1.772331e+00	1.781262e+00	1.806981e+00	1.827324e+00	1.837615e+00	1.850010e+00	1.862680e+00	1.874410e+00	1.885839e+00	1.896290e+00	1.905808e+00	1.914301e+00	1.922905e+00	1.931854e+00	1.940766e+00	1.949673e+00	1.958031e+00	1.966662e+00	1.976043e+00	1.986228e+00	1.993761e+00	2.000753e+00	2.003932e+00	1.999816e+00	1.992717e+00	1.986602e+00	1.986891e+00	1.984231e+00	1.950069e+00	1.621807e+00	1.074492e+00	1.000830e+00	1.000012e+00	1.000000e+00	1.000000e+00	1.000000e+00	1.000000e+00	1.000000e+00	1.000000e+00	1.000000e+00	1.000000e+00	1.000000e+00	1.000000e+00	1.000000e+00	1.000000e+00	1.000000e+00	1.000000e+00	1.000000e+00	1.000000e+00	1.000000e+00	1.000000e+00	1.000000e+00	1.000000e+00	1.000000e+00	4.000000e+00	4.000000e+00	4.000000e+00	4.000000e+00	4.000000e+00	4.000000e+00	4.000000e+00	4.000000e+00	4.000000e+00	4.000000e+00	4.000000e+00	4.000000e+00	4.000000e+00	4.000000e+00	4.000000e+00	3.999999e+00	3.999995e+00	3.999977e+00	3.999886e+00	3.999334e+00	3.994948e+00	3.956366e+00	3.868268e+00	3.773369e+00	3.673189e+00	3.571209e+00	3.466950e+00	3.362998e+00	3.261213e+00	3.161481e+00	3.064062e+00	2.968849e+00	2.875723e+00	2.784579e+00	2.695315e+00	2.607843e+00	2.522112e+00	2.438086e+00	2.355766e+00	2.275016e+00	2.195754e+00	2.117887e+00	2.041363e+00	1.965994e+00	1.891860e+00	1.820569e+00	1.784159e+00	1.769450e+00	1.763232e+00	1.774371e+00	1.799820e+00	1.819588e+00	1.830286e+00	1.842056e+00	1.853265e+00	1.863663e+00	1.874474e+00	1.884990e+00	1.894792e+00	1.903641e+00	1.912331e+00	1.920921e+00	1.929365e+00	1.937905e+00	1.946328e+00	1.953645e+00	1.959835e+00	1.965945e+00	1.972986e+00	1.980628e+00	1.986344e+00	1.989400e+00	1.991490e+00	1.992396e+00	1.993517e+00	1.990827e+00	1.954089e+00	1.594598e+00	1.057951e+00	1.000529e+00	1.000006e+00	1.000000e+00	1.000000e+00	1.000000e+00	1.000000e+00	1.000000e+00	1.000000e+00	1.000000e+00	1.000000e+00	1.000000e+00	1.000000e+00	1.000000e+00	1.000000e+00	1.000000e+00	1.000000e+00	1.000000e+00	1.000000e+00	1.000000e+00	1.000000e+00	1.000000e+00	1.000000e+00	1.000000e+00	4.000000e+00	4.000000e+00	4.000000e+00	4.000000e+00	4.000000e+00	4.000000e+00	4.000000e+00	4.000000e+00	4.000000e+00	4.000000e+00	4.000000e+00	4.000000e+00	4.000000e+00	4.000000e+00	4.000000e+00	4.000000e+00	3.999998e+00	3.999990e+00	3.999938e+00	3.999516e+00	3.995330e+00	3.953260e+00	3.857253e+00	3.757689e+00	3.657891e+00	3.557090e+00	3.456706e+00	3.355133e+00	3.254431e+00	3.155972e+00	3.059698e+00	2.965503e+00	2.873260e+00	2.782878e+00	2.694263e+00	2.607356e+00	2.522133e+00	2.438561e+00	2.356590e+00	2.276133e+00	2.197138e+00	2.119523e+00	2.043236e+00	1.968116e+00	1.894021e+00	1.823990e+00	1.789090e+00	1.774872e+00	1.768939e+00	1.781570e+00	1.806300e+00	1.824944e+00	1.835764e+00	1.846955e+00	1.856980e+00	1.865989e+00	1.875706e+00	1.885755e+00	1.895496e+00	1.904411e+00	1.912956e+00	1.921214e+00	1.929218e+00	1.937076e+00	1.944475e+00	1.950059e+00	1.953629e+00	1.956255e+00	1.959560e+00	1.963524e+00	1.970980e+00	1.979297e+00	1.989258e+00	1.998757e+00	2.005921e+00	2.007659e+00	1.964087e+00	1.560523e+00	1.041869e+00	1.000401e+00	1.000004e+00	1.000000e+00	1.000000e+00	1.000000e+00	1.000000e+00	1.000000e+00	1.000000e+00	1.000000e+00	1.000000e+00	1.000000e+00	1.000000e+00	1.000000e+00	1.000000e+00	1.000000e+00	1.000000e+00	1.000000e+00	1.000000e+00	1.000000e+00	1.000000e+00	1.000000e+00	1.000000e+00	1.000000e+00	4.000000e+00	4.000000e+00	4.000000e+00	4.000000e+00	4.000000e+00	4.000000e+00	4.000000e+00	4.000000e+00	4.000000e+00	4.000000e+00	4.000000e+00	4.000000e+00	4.000000e+00	4.000000e+00	4.000000e+00	4.000000e+00	3.999999e+00	3.999994e+00	3.999954e+00	3.999529e+00	3.994699e+00	3.946255e+00	3.842385e+00	3.738068e+00	3.637340e+00	3.538583e+00	3.439829e+00	3.341616e+00	3.242604e+00	3.145080e+00	3.049672e+00	2.956270e+00	2.864767e+00	2.775056e+00	2.687038e+00	2.600665e+00	2.515923e+00	2.432794e+00	2.351235e+00	2.271160e+00	2.192518e+00	2.115245e+00	2.039273e+00	1.964498e+00	1.890421e+00	1.822471e+00	1.789816e+00	1.776612e+00	1.771376e+00	1.786188e+00	1.810116e+00	1.826870e+00	1.837971e+00	1.848895e+00	1.858308e+00	1.866491e+00	1.874988e+00	1.883759e+00	1.892638e+00	1.901011e+00	1.909015e+00	1.916432e+00	1.923639e+00	1.931016e+00	1.937415e+00	1.942082e+00	1.944758e+00	1.945594e+00	1.945569e+00	1.949957e+00	1.957827e+00	1.970470e+00	1.987090e+00	2.000166e+00	2.011053e+00	2.018673e+00	1.968207e+00	1.518537e+00	1.024775e+00	1.000295e+00	1.000003e+00	1.000000e+00	1.000000e+00	1.000000e+00	1.000000e+00	1.000000e+00	1.000000e+00	1.000000e+00	1.000000e+00	1.000000e+00	1.000000e+00	1.000000e+00	1.000000e+00	1.000000e+00	1.000000e+00	1.000000e+00	1.000000e+00	1.000000e+00	1.000000e+00	1.000000e+00	1.000000e+00	1.000000e+00	4.000000e+00	4.000000e+00	4.000000e+00	4.000000e+00	4.000000e+00	4.000000e+00	4.000000e+00	4.000000e+00	4.000000e+00	4.000000e+00	4.000000e+00	4.000000e+00	4.000000e+00	4.000000e+00	4.000000e+00	4.000000e+00	3.999999e+00	3.999995e+00	3.999944e+00	3.999375e+00	3.992870e+00	3.931798e+00	3.823860e+00	3.716199e+00	3.613328e+00	3.515135e+00	3.418327e+00	3.322618e+00	3.227224e+00	3.131333e+00	3.036859e+00	2.944255e+00	2.853517e+00	2.764557e+00	2.677248e+00	2.591530e+00	2.507389e+00	2.424813e+00	2.343768e+00	2.264173e+00	2.185981e+00	2.109146e+00	2.033564e+00	1.959186e+00	1.885136e+00	1.820154e+00	1.790316e+00	1.778636e+00	1.774911e+00	1.792633e+00	1.814877e+00	1.828874e+00	1.840636e+00	1.852282e+00	1.862229e+00	1.870757e+00	1.879019e+00	1.887098e+00	1.895013e+00	1.902127e+00	1.908986e+00	1.915455e+00	1.921690e+00	1.927530e+00	1.933337e+00	1.937125e+00	1.939191e+00	1.940894e+00	1.944065e+00	1.952068e+00	1.957298e+00	1.968246e+00	1.988732e+00	2.002520e+00	2.013885e+00	2.021316e+00	1.961322e+00	1.469208e+00	1.017157e+00	1.000221e+00	1.000002e+00	1.000000e+00	1.000000e+00	1.000000e+00	1.000000e+00	1.000000e+00	1.000000e+00	1.000000e+00	1.000000e+00	1.000000e+00	1.000000e+00	1.000000e+00	1.000000e+00	1.000000e+00	1.000000e+00	1.000000e+00	1.000000e+00	1.000000e+00	1.000000e+00	1.000000e+00	1.000000e+00	1.000000e+00	4.000000e+00	4.000000e+00	4.000000e+00	4.000000e+00	4.000000e+00	4.000000e+00	4.000000e+00	4.000000e+00	4.000000e+00	4.000000e+00	4.000000e+00	4.000000e+00	4.000000e+00	4.000000e+00	4.000000e+00	4.000000e+00	3.999999e+00	3.999993e+00	3.999917e+00	3.999016e+00	3.988311e+00	3.908475e+00	3.800135e+00	3.691859e+00	3.586739e+00	3.487387e+00	3.392508e+00	3.299072e+00	3.206997e+00	3.114384e+00	3.021409e+00	2.929679e+00	2.839701e+00	2.751494e+00	2.664953e+00	2.579974e+00	2.496526e+00	2.414591e+00	2.334140e+00	2.255102e+00	2.177442e+00	2.101130e+00	2.026002e+00	1.952108e+00	1.877922e+00	1.817064e+00	1.790395e+00	1.780224e+00	1.778939e+00	1.798977e+00	1.819230e+00	1.830519e+00	1.843712e+00	1.857381e+00	1.869287e+00	1.879462e+00	1.888440e+00	1.896118e+00	1.903173e+00	1.909245e+00	1.915362e+00	1.921352e+00	1.926962e+00	1.931428e+00	1.935092e+00	1.939450e+00	1.945278e+00	1.949996e+00	1.955666e+00	1.961292e+00	1.967470e+00	1.979592e+00	1.994750e+00	2.004663e+00	2.014757e+00	2.017450e+00	1.939642e+00	1.416557e+00	1.013779e+00	1.000168e+00	1.000002e+00	1.000000e+00	1.000000e+00	1.000000e+00	1.000000e+00	1.000000e+00	1.000000e+00	1.000000e+00	1.000000e+00	1.000000e+00	1.000000e+00	1.000000e+00	1.000000e+00	1.000000e+00	1.000000e+00	1.000000e+00	1.000000e+00	1.000000e+00	1.000000e+00	1.000000e+00	1.000000e+00	1.000000e+00	4.000000e+00	4.000000e+00	4.000000e+00	4.000000e+00	4.000000e+00	4.000000e+00	4.000000e+00	4.000000e+00	4.000000e+00	4.000000e+00	4.000000e+00	4.000000e+00	4.000000e+00	4.000000e+00	4.000000e+00	4.000000e+00	3.999999e+00	3.999987e+00	3.999847e+00	3.998145e+00	3.975959e+00	3.879869e+00	3.770888e+00	3.662944e+00	3.557482e+00	3.457494e+00	3.362992e+00	3.272279e+00	3.181957e+00	3.092974e+00	3.002965e+00	2.912703e+00	2.823591e+00	2.736127e+00	2.650326e+00	2.566120e+00	2.483424e+00	2.402197e+00	2.322405e+00	2.244003e+00	2.166954e+00	2.091265e+00	2.016668e+00	1.943376e+00	1.869104e+00	1.813334e+00	1.790132e+00	1.781403e+00	1.783830e+00	1.806117e+00	1.824771e+00	1.834622e+00	1.849120e+00	1.865368e+00	1.879740e+00	1.891309e+00	1.900846e+00	1.908569e+00	1.915204e+00	1.920429e+00	1.925480e+00	1.929834e+00	1.935146e+00	1.940062e+00	1.944668e+00	1.950432e+00	1.955707e+00	1.961062e+00	1.967952e+00	1.974645e+00	1.984210e+00	1.993632e+00	1.999570e+00	2.003738e+00	2.005925e+00	2.001493e+00	1.909483e+00	1.367839e+00	1.011110e+00	1.000130e+00	1.000001e+00	1.000000e+00	1.000000e+00	1.000000e+00	1.000000e+00	1.000000e+00	1.000000e+00	1.000000e+00	1.000000e+00	1.000000e+00	1.000000e+00	1.000000e+00	1.000000e+00	1.000000e+00	1.000000e+00	1.000000e+00	1.000000e+00	1.000000e+00	1.000000e+00	1.000000e+00	1.000000e+00	1.000000e+00	4.000000e+00	4.000000e+00	4.000000e+00	4.000000e+00	4.000000e+00	4.000000e+00	4.000000e+00	4.000000e+00	4.000000e+00	4.000000e+00	4.000000e+00	4.000000e+00	4.000000e+00	4.000000e+00	4.000000e+00	4.000000e+00	3.999998e+00	3.999973e+00	3.999673e+00	3.995898e+00	3.952701e+00	3.846046e+00	3.735752e+00	3.628455e+00	3.525092e+00	3.426122e+00	3.331996e+00	3.241879e+00	3.154022e+00	3.066526e+00	2.980217e+00	2.892833e+00	2.805232e+00	2.718697e+00	2.633675e+00	2.550238e+00	2.468311e+00	2.387838e+00	2.308761e+00	2.231043e+00	2.154661e+00	2.079662e+00	2.005708e+00	1.933055e+00	1.859365e+00	1.809060e+00	1.789617e+00	1.782260e+00	1.789669e+00	1.814655e+00	1.833265e+00	1.843299e+00	1.857289e+00	1.873344e+00	1.888743e+00	1.901851e+00	1.912357e+00	1.920774e+00	1.927146e+00	1.931791e+00	1.935918e+00	1.940196e+00	1.944920e+00	1.949057e+00	1.953311e+00	1.958898e+00	1.964053e+00	1.972154e+00	1.981140e+00	1.989528e+00	1.995180e+00	1.998081e+00	1.995396e+00	1.993878e+00	1.993814e+00	1.984535e+00	1.877293e+00	1.318469e+00	1.008646e+00	1.000094e+00	1.000001e+00	1.000000e+00	1.000000e+00	1.000000e+00	1.000000e+00	1.000000e+00	1.000000e+00	1.000000e+00	1.000000e+00	1.000000e+00	1.000000e+00	1.000000e+00	1.000000e+00	1.000000e+00	1.000000e+00	1.000000e+00	1.000000e+00	1.000000e+00	1.000000e+00	1.000000e+00	1.000000e+00	1.000000e+00	4.000000e+00	4.000000e+00	4.000000e+00	4.000000e+00	4.000000e+00	4.000000e+00	4.000000e+00	4.000000e+00	4.000000e+00	4.000000e+00	4.000000e+00	4.000000e+00	4.000000e+00	4.000000e+00	4.000000e+00	4.000000e+00	3.999995e+00	3.999938e+00	3.999222e+00	3.990747e+00	3.914378e+00	3.804567e+00	3.694525e+00	3.589431e+00	3.489501e+00	3.393311e+00	3.299963e+00	3.209973e+00	3.122970e+00	3.037236e+00	2.952424e+00	2.868646e+00	2.784075e+00	2.699145e+00	2.615187e+00	2.532583e+00	2.451452e+00	2.371754e+00	2.293423e+00	2.216439e+00	2.140783e+00	2.066535e+00	1.993392e+00	1.921346e+00	1.849301e+00	1.804794e+00	1.788993e+00	1.783329e+00	1.797556e+00	1.825395e+00	1.844480e+00	1.853139e+00	1.864588e+00	1.877761e+00	1.891964e+00	1.906314e+00	1.919557e+00	1.929824e+00	1.937430e+00	1.942940e+00	1.946880e+00	1.950966e+00	1.954225e+00	1.957191e+00	1.961761e+00	1.966555e+00	1.975450e+00	1.983214e+00	1.988870e+00	1.992771e+00	1.995099e+00	1.992740e+00	1.988106e+00	1.986193e+00	1.985178e+00	1.973700e+00	1.843367e+00	1.258094e+00	1.005886e+00	1.000056e+00	1.000000e+00	1.000000e+00	1.000000e+00	1.000000e+00	1.000000e+00	1.000000e+00	1.000000e+00	1.000000e+00	1.000000e+00	1.000000e+00	1.000000e+00	1.000000e+00	1.000000e+00	1.000000e+00	1.000000e+00	1.000000e+00	1.000000e+00	1.000000e+00	1.000000e+00	1.000000e+00	1.000000e+00	1.000000e+00	4.000000e+00	4.000000e+00	4.000000e+00	4.000000e+00	4.000000e+00	4.000000e+00	4.000000e+00	4.000000e+00	4.000000e+00	4.000000e+00	4.000000e+00	4.000000e+00	4.000000e+00	4.000000e+00	4.000000e+00	3.999999e+00	3.999987e+00	3.999839e+00	3.997928e+00	3.972212e+00	3.868064e+00	3.754767e+00	3.647484e+00	3.546884e+00	3.451156e+00	3.358213e+00	3.266711e+00	3.176970e+00	3.089778e+00	3.005298e+00	2.921819e+00	2.839519e+00	2.758268e+00	2.676752e+00	2.594563e+00	2.513191e+00	2.433000e+00	2.354160e+00	2.276631e+00	2.200436e+00	2.125572e+00	2.052108e+00	1.979986e+00	1.908548e+00	1.839166e+00	1.801330e+00	1.789273e+00	1.786414e+00	1.807297e+00	1.836012e+00	1.853824e+00	1.860794e+00	1.869643e+00	1.879495e+00	1.890257e+00	1.902742e+00	1.917186e+00	1.930932e+00	1.943073e+00	1.951629e+00	1.956793e+00	1.960951e+00	1.964523e+00	1.969377e+00	1.975140e+00	1.979079e+00	1.981358e+00	1.983320e+00	1.985858e+00	1.989456e+00	1.989665e+00	1.985473e+00	1.979821e+00	1.980697e+00	1.980944e+00	1.969667e+00	1.797855e+00	1.191522e+00	1.003459e+00	1.000029e+00	1.000000e+00	1.000000e+00	1.000000e+00	1.000000e+00	1.000000e+00	1.000000e+00	1.000000e+00	1.000000e+00	1.000000e+00	1.000000e+00	1.000000e+00	1.000000e+00	1.000000e+00	1.000000e+00	1.000000e+00	1.000000e+00	1.000000e+00	1.000000e+00	1.000000e+00	1.000000e+00	1.000000e+00	1.000000e+00	4.000000e+00	4.000000e+00	4.000000e+00	4.000000e+00	4.000000e+00	4.000000e+00	4.000000e+00	4.000000e+00	4.000000e+00	4.000000e+00	4.000000e+00	4.000000e+00	4.000000e+00	4.000000e+00	4.000000e+00	3.999997e+00	3.999963e+00	3.999520e+00	3.993754e+00	3.930039e+00	3.812591e+00	3.699298e+00	3.596849e+00	3.501628e+00	3.410019e+00	3.320207e+00	3.231226e+00	3.142860e+00	3.056136e+00	2.971526e+00	2.889052e+00	2.807813e+00	2.727885e+00	2.649017e+00	2.570540e+00	2.491428e+00	2.412745e+00	2.335032e+00	2.258472e+00	2.183176e+00	2.109213e+00	2.036590e+00	1.965653e+00	1.894537e+00	1.830029e+00	1.799744e+00	1.791055e+00	1.793114e+00	1.817221e+00	1.844273e+00	1.860428e+00	1.865931e+00	1.872517e+00	1.879652e+00	1.887310e+00	1.896420e+00	1.907606e+00	1.920892e+00	1.936127e+00	1.951762e+00	1.962709e+00	1.970199e+00	1.974405e+00	1.978933e+00	1.980418e+00	1.980617e+00	1.980593e+00	1.981088e+00	1.981512e+00	1.982865e+00	1.981331e+00	1.975674e+00	1.974425e+00	1.978610e+00	1.982514e+00	1.971978e+00	1.726845e+00	1.126286e+00	1.001569e+00	1.000012e+00	1.000000e+00	1.000000e+00	1.000000e+00	1.000000e+00	1.000000e+00	1.000000e+00	1.000000e+00	1.000000e+00	1.000000e+00	1.000000e+00	1.000000e+00	1.000000e+00	1.000000e+00	1.000000e+00	1.000000e+00	1.000000e+00	1.000000e+00	1.000000e+00	1.000000e+00	1.000000e+00	1.000000e+00	1.000000e+00	4.000000e+00	4.000000e+00	4.000000e+00	4.000000e+00	4.000000e+00	4.000000e+00	4.000000e+00	4.000000e+00	4.000000e+00	4.000000e+00	4.000000e+00	4.000000e+00	4.000000e+00	4.000000e+00	3.999999e+00	3.999990e+00	3.999873e+00	3.998329e+00	3.975549e+00	3.865540e+00	3.747580e+00	3.640593e+00	3.544284e+00	3.453908e+00	3.365944e+00	3.279053e+00	3.192692e+00	3.106673e+00	3.021265e+00	2.937026e+00	2.854814e+00	2.774404e+00	2.695520e+00	2.617913e+00	2.541436e+00	2.465660e+00	2.389612e+00	2.313768e+00	2.238632e+00	2.164523e+00	2.091675e+00	2.020086e+00	1.950394e+00	1.880170e+00	1.823638e+00	1.801111e+00	1.795044e+00	1.802055e+00	1.825199e+00	1.849423e+00	1.864348e+00	1.868970e+00	1.873912e+00	1.879185e+00	1.884653e+00	1.891221e+00	1.898411e+00	1.907200e+00	1.918762e+00	1.933468e+00	1.952845e+00	1.969439e+00	1.979086e+00	1.982024e+00	1.983364e+00	1.983241e+00	1.981155e+00	1.978703e+00	1.976147e+00	1.974352e+00	1.971100e+00	1.968732e+00	1.973532e+00	1.986476e+00	1.995260e+00	1.973419e+00	1.627679e+00	1.065047e+00	1.000532e+00	1.000005e+00	1.000000e+00	1.000000e+00	1.000000e+00	1.000000e+00	1.000000e+00	1.000000e+00	1.000000e+00	1.000000e+00	1.000000e+00	1.000000e+00	1.000000e+00	1.000000e+00	1.000000e+00	1.000000e+00	1.000000e+00	1.000000e+00	1.000000e+00	1.000000e+00	1.000000e+00	1.000000e+00	1.000000e+00	1.000000e+00	4.000000e+00	4.000000e+00	4.000000e+00	4.000000e+00	4.000000e+00	4.000000e+00	4.000000e+00	4.000000e+00	4.000000e+00	4.000000e+00	4.000000e+00	4.000000e+00	4.000000e+00	4.000000e+00	3.999996e+00	3.999958e+00	3.999444e+00	3.992396e+00	3.915570e+00	3.792534e+00	3.679722e+00	3.580364e+00	3.489962e+00	3.403661e+00	3.318901e+00	3.234752e+00	3.150972e+00	3.067764e+00	2.984465e+00	2.901750e+00	2.820031e+00	2.739908e+00	2.661582e+00	2.584921e+00	2.509704e+00	2.435579e+00	2.362318e+00	2.289204e+00	2.216223e+00	2.143876e+00	2.072538e+00	2.002425e+00	1.934111e+00	1.866849e+00	1.820562e+00	1.805012e+00	1.800651e+00	1.810392e+00	1.830742e+00	1.851710e+00	1.866105e+00	1.870813e+00	1.874667e+00	1.878782e+00	1.882713e+00	1.887199e+00	1.892110e+00	1.896403e+00	1.902925e+00	1.912789e+00	1.926273e+00	1.944186e+00	1.965220e+00	1.980034e+00	1.986326e+00	1.986798e+00	1.984171e+00	1.980526e+00	1.976234e+00	1.971540e+00	1.967777e+00	1.973851e+00	1.985415e+00	2.001765e+00	2.008361e+00	1.962664e+00	1.501326e+00	1.018399e+00	1.000230e+00	1.000002e+00	1.000000e+00	1.000000e+00	1.000000e+00	1.000000e+00	1.000000e+00	1.000000e+00	1.000000e+00	1.000000e+00	1.000000e+00	1.000000e+00	1.000000e+00	1.000000e+00	1.000000e+00	1.000000e+00	1.000000e+00	1.000000e+00	1.000000e+00	1.000000e+00	1.000000e+00	1.000000e+00	1.000000e+00	1.000000e+00	3.999998e+00	3.999999e+00	4.000000e+00	4.000000e+00	4.000000e+00	4.000000e+00	4.000000e+00	4.000000e+00	4.000000e+00	4.000000e+00	4.000000e+00	4.000000e+00	3.999999e+00	3.999996e+00	3.999975e+00	3.999733e+00	3.996561e+00	3.951489e+00	3.830105e+00	3.713523e+00	3.610976e+00	3.519104e+00	3.433614e+00	3.350880e+00	3.269071e+00	3.187569e+00	3.106298e+00	3.025665e+00	2.944950e+00	2.864762e+00	2.784552e+00	2.705334e+00	2.627360e+00	2.550959e+00	2.476303e+00	2.403252e+00	2.331491e+00	2.260654e+00	2.190305e+00	2.120299e+00	2.051006e+00	1.983039e+00	1.916394e+00	1.855370e+00	1.820661e+00	1.809417e+00	1.806181e+00	1.817103e+00	1.834381e+00	1.852334e+00	1.866445e+00	1.872157e+00	1.875502e+00	1.879683e+00	1.884376e+00	1.889191e+00	1.893797e+00	1.897797e+00	1.900530e+00	1.903284e+00	1.908812e+00	1.920647e+00	1.936653e+00	1.956036e+00	1.977631e+00	1.989260e+00	1.990970e+00	1.987511e+00	1.983636e+00	1.980010e+00	1.982799e+00	1.990721e+00	2.003123e+00	2.013976e+00	2.018117e+00	1.924700e+00	1.340115e+00	1.008628e+00	1.000088e+00	1.000001e+00	1.000000e+00	1.000000e+00	1.000000e+00	1.000000e+00	1.000000e+00	1.000000e+00	1.000000e+00	1.000000e+00	1.000000e+00	1.000000e+00	1.000000e+00	1.000000e+00	1.000000e+00	1.000000e+00	1.000000e+00	1.000000e+00	1.000000e+00	1.000000e+00	1.000000e+00	1.000000e+00	1.000000e+00	1.000000e+00	3.999993e+00	3.999997e+00	3.999999e+00	4.000000