# vtk DataFile Version 3.0
vtk output
ASCII
DATASET STRUCTURED_GRID
DIMENSIONS 102 102 1
POINTS 10404 double
0.000000e+00	0.000000e+00	0.0	1.980198e+00	0.000000e+00	0.0	3.960396e+00	0.000000e+00	0.0	5.940594e+00	0.000000e+00	0.0	7.920792e+00	0.000000e+00	0.0	9.900990e+00	0.000000e+00	0.0	1.188119e+01	0.000000e+00	0.0	1.386139e+01	0.000000e+00	0.0	1.584158e+01	0.000000e+00	0.0	1.782178e+01	0.000000e+00	0.0	1.980198e+01	0.000000e+00	0.0	2.178218e+01	0.000000e+00	0.0	2.376238e+01	0.000000e+00	0.0	2.574257e+01	0.000000e+00	0.0	2.772277e+01	0.000000e+00	0.0	2.970297e+01	0.000000e+00	0.0	3.168317e+01	0.000000e+00	0.0	3.366337e+01	0.000000e+00	0.0	3.564356e+01	0.000000e+00	0.0	3.762376e+01	0.000000e+00	0.0	3.960396e+01	0.000000e+00	0.0	4.158416e+01	0.000000e+00	0.0	4.356436e+01	0.000000e+00	0.0	4.554455e+01	0.000000e+00	0.0	4.752475e+01	0.000000e+00	0.0	4.950495e+01	0.000000e+00	0.0	5.148515e+01	0.000000e+00	0.0	5.346535e+01	0.000000e+00	0.0	5.544554e+01	0.000000e+00	0.0	5.742574e+01	0.000000e+00	0.0	5.940594e+01	0.000000e+00	0.0	6.138614e+01	0.000000e+00	0.0	6.336634e+01	0.000000e+00	0.0	6.534653e+01	0.000000e+00	0.0	6.732673e+01	0.000000e+00	0.0	6.930693e+01	0.000000e+00	0.0	7.128713e+01	0.000000e+00	0.0	7.326733e+01	0.000000e+00	0.0	7.524752e+01	0.000000e+00	0.0	7.722772e+01	0.000000e+00	0.0	7.920792e+01	0.000000e+00	0.0	8.118812e+01	0.000000e+00	0.0	8.316832e+01	0.000000e+00	0.0	8.514851e+01	0.000000e+00	0.0	8.712871e+01	0.000000e+00	0.0	8.910891e+01	0.000000e+00	0.0	9.108911e+01	0.000000e+00	0.0	9.306931e+01	0.000000e+00	0.0	9.504950e+01	0.000000e+00	0.0	9.702970e+01	0.000000e+00	0.0	9.900990e+01	0.000000e+00	0.0	1.009901e+02	0.000000e+00	0.0	1.029703e+02	0.000000e+00	0.0	1.049505e+02	0.000000e+00	0.0	1.069307e+02	0.000000e+00	0.0	1.089109e+02	0.000000e+00	0.0	1.108911e+02	0.000000e+00	0.0	1.128713e+02	0.000000e+00	0.0	1.148515e+02	0.000000e+00	0.0	1.168317e+02	0.000000e+00	0.0	1.188119e+02	0.000000e+00	0.0	1.207921e+02	0.000000e+00	0.0	1.227723e+02	0.000000e+00	0.0	1.247525e+02	0.000000e+00	0.0	1.267327e+02	0.000000e+00	0.0	1.287129e+02	0.000000e+00	0.0	1.306931e+02	0.000000e+00	0.0	1.326733e+02	0.000000e+00	0.0	1.346535e+02	0.000000e+00	0.0	1.366337e+02	0.000000e+00	0.0	1.386139e+02	0.000000e+00	0.0	1.405941e+02	0.000000e+00	0.0	1.425743e+02	0.000000e+00	0.0	1.445545e+02	0.000000e+00	0.0	1.465347e+02	0.000000e+00	0.0	1.485149e+02	0.000000e+00	0.0	1.504950e+02	0.000000e+00	0.0	1.524752e+02	0.000000e+00	0.0	1.544554e+02	0.000000e+00	0.0	1.564356e+02	0.000000e+00	0.0	1.584158e+02	0.000000e+00	0.0	1.603960e+02	0.000000e+00	0.0	1.623762e+02	0.000000e+00	0.0	1.643564e+02	0.000000e+00	0.0	1.663366e+02	0.000000e+00	0.0	1.683168e+02	0.000000e+00	0.0	1.702970e+02	0.000000e+00	0.0	1.722772e+02	0.000000e+00	0.0	1.742574e+02	0.000000e+00	0.0	1.762376e+02	0.000000e+00	0.0	1.782178e+02	0.000000e+00	0.0	1.801980e+02	0.000000e+00	0.0	1.821782e+02	0.000000e+00	0.0	1.841584e+02	0.000000e+00	0.0	1.861386e+02	0.000000e+00	0.0	1.881188e+02	0.000000e+00	0.0	1.900990e+02	0.000000e+00	0.0	1.920792e+02	0.000000e+00	0.0	1.940594e+02	0.000000e+00	0.0	1.960396e+02	0.000000e+00	0.0	1.980198e+02	0.000000e+00	0.0	2.000000e+02	0.000000e+00	0.0	0.000000e+00	1.980198e+00	0.0	1.980198e+00	1.980198e+00	0.0	3.960396e+00	1.980198e+00	0.0	5.940594e+00	1.980198e+00	0.0	7.920792e+00	1.980198e+00	0.0	9.900990e+00	1.980198e+00	0.0	1.188119e+01	1.980198e+00	0.0	1.386139e+01	1.980198e+00	0.0	1.584158e+01	1.980198e+00	0.0	1.782178e+01	1.980198e+00	0.0	1.980198e+01	1.980198e+00	0.0	2.178218e+01	1.980198e+00	0.0	2.376238e+01	1.980198e+00	0.0	2.574257e+01	1.980198e+00	0.0	2.772277e+01	1.980198e+00	0.0	2.970297e+01	1.980198e+00	0.0	3.168317e+01	1.980198e+00	0.0	3.366337e+01	1.980198e+00	0.0	3.564356e+01	1.980198e+00	0.0	3.762376e+01	1.980198e+00	0.0	3.960396e+01	1.980198e+00	0.0	4.158416e+01	1.980198e+00	0.0	4.356436e+01	1.980198e+00	0.0	4.554455e+01	1.980198e+00	0.0	4.752475e+01	1.980198e+00	0.0	4.950495e+01	1.980198e+00	0.0	5.148515e+01	1.980198e+00	0.0	5.346535e+01	1.980198e+00	0.0	5.544554e+01	1.980198e+00	0.0	5.742574e+01	1.980198e+00	0.0	5.940594e+01	1.980198e+00	0.0	6.138614e+01	1.980198e+00	0.0	6.336634e+01	1.980198e+00	0.0	6.534653e+01	1.980198e+00	0.0	6.732673e+01	1.980198e+00	0.0	6.930693e+01	1.980198e+00	0.0	7.128713e+01	1.980198e+00	0.0	7.326733e+01	1.980198e+00	0.0	7.524752e+01	1.980198e+00	0.0	7.722772e+01	1.980198e+00	0.0	7.920792e+01	1.980198e+00	0.0	8.118812e+01	1.980198e+00	0.0	8.316832e+01	1.980198e+00	0.0	8.514851e+01	1.980198e+00	0.0	8.712871e+01	1.980198e+00	0.0	8.910891e+01	1.980198e+00	0.0	9.108911e+01	1.980198e+00	0.0	9.306931e+01	1.980198e+00	0.0	9.504950e+01	1.980198e+00	0.0	9.702970e+01	1.980198e+00	0.0	9.900990e+01	1.980198e+00	0.0	1.009901e+02	1.980198e+00	0.0	1.029703e+02	1.980198e+00	0.0	1.049505e+02	1.980198e+00	0.0	1.069307e+02	1.980198e+00	0.0	1.089109e+02	1.980198e+00	0.0	1.108911e+02	1.980198e+00	0.0	1.128713e+02	1.980198e+00	0.0	1.148515e+02	1.980198e+00	0.0	1.168317e+02	1.980198e+00	0.0	1.188119e+02	1.980198e+00	0.0	1.207921e+02	1.980198e+00	0.0	1.227723e+02	1.980198e+00	0.0	1.247525e+02	1.980198e+00	0.0	1.267327e+02	1.980198e+00	0.0	1.287129e+02	1.980198e+00	0.0	1.306931e+02	1.980198e+00	0.0	1.326733e+02	1.980198e+00	0.0	1.346535e+02	1.980198e+00	0.0	1.366337e+02	1.980198e+00	0.0	1.386139e+02	1.980198e+00	0.0	1.405941e+02	1.980198e+00	0.0	1.425743e+02	1.980198e+00	0.0	1.445545e+02	1.980198e+00	0.0	1.465347e+02	1.980198e+00	0.0	1.485149e+02	1.980198e+00	0.0	1.504950e+02	1.980198e+00	0.0	1.524752e+02	1.980198e+00	0.0	1.544554e+02	1.980198e+00	0.0	1.564356e+02	1.980198e+00	0.0	1.584158e+02	1.980198e+00	0.0	1.603960e+02	1.980198e+00	0.0	1.623762e+02	1.980198e+00	0.0	1.643564e+02	1.980198e+00	0.0	1.663366e+02	1.980198e+00	0.0	1.683168e+02	1.980198e+00	0.0	1.702970e+02	1.980198e+00	0.0	1.722772e+02	1.980198e+00	0.0	1.742574e+02	1.980198e+00	0.0	1.762376e+02	1.980198e+00	0.0	1.782178e+02	1.980198e+00	0.0	1.801980e+02	1.980198e+00	0.0	1.821782e+02	1.980198e+00	0.0	1.841584e+02	1.980198e+00	0.0	1.861386e+02	1.980198e+00	0.0	1.881188e+02	1.980198e+00	0.0	1.900990e+02	1.980198e+00	0.0	1.920792e+02	1.980198e+00	0.0	1.940594e+02	1.980198e+00	0.0	1.960396e+02	1.980198e+00	0.0	1.980198e+02	1.980198e+00	0.0	2.000000e+02	1.980198e+00	0.0	0.000000e+00	3.960396e+00	0.0	1.980198e+00	3.960396e+00	0.0	3.960396e+00	3.960396e+00	0.0	5.940594e+00	3.960396e+00	0.0	7.920792e+00	3.960396e+00	0.0	9.900990e+00	3.960396e+00	0.0	1.188119e+01	3.960396e+00	0.0	1.386139e+01	3.960396e+00	0.0	1.584158e+01	3.960396e+00	0.0	1.782178e+01	3.960396e+00	0.0	1.980198e+01	3.960396e+00	0.0	2.178218e+01	3.960396e+00	0.0	2.376238e+01	3.960396e+00	0.0	2.574257e+01	3.960396e+00	0.0	2.772277e+01	3.960396e+00	0.0	2.970297e+01	3.960396e+00	0.0	3.168317e+01	3.960396e+00	0.0	3.366337e+01	3.960396e+00	0.0	3.564356e+01	3.960396e+00	0.0	3.762376e+01	3.960396e+00	0.0	3.960396e+01	3.960396e+00	0.0	4.158416e+01	3.960396e+00	0.0	4.356436e+01	3.960396e+00	0.0	4.554455e+01	3.960396e+00	0.0	4.752475e+01	3.960396e+00	0.0	4.950495e+01	3.960396e+00	0.0	5.148515e+01	3.960396e+00	0.0	5.346535e+01	3.960396e+00	0.0	5.544554e+01	3.960396e+00	0.0	5.742574e+01	3.960396e+00	0.0	5.940594e+01	3.960396e+00	0.0	6.138614e+01	3.960396e+00	0.0	6.336634e+01	3.960396e+00	0.0	6.534653e+01	3.960396e+00	0.0	6.732673e+01	3.960396e+00	0.0	6.930693e+01	3.960396e+00	0.0	7.128713e+01	3.960396e+00	0.0	7.326733e+01	3.960396e+00	0.0	7.524752e+01	3.960396e+00	0.0	7.722772e+01	3.960396e+00	0.0	7.920792e+01	3.960396e+00	0.0	8.118812e+01	3.960396e+00	0.0	8.316832e+01	3.960396e+00	0.0	8.514851e+01	3.960396e+00	0.0	8.712871e+01	3.960396e+00	0.0	8.910891e+01	3.960396e+00	0.0	9.108911e+01	3.960396e+00	0.0	9.306931e+01	3.960396e+00	0.0	9.504950e+01	3.960396e+00	0.0	9.702970e+01	3.960396e+00	0.0	9.900990e+01	3.960396e+00	0.0	1.009901e+02	3.960396e+00	0.0	1.029703e+02	3.960396e+00	0.0	1.049505e+02	3.960396e+00	0.0	1.069307e+02	3.960396e+00	0.0	1.089109e+02	3.960396e+00	0.0	1.108911e+02	3.960396e+00	0.0	1.128713e+02	3.960396e+00	0.0	1.148515e+02	3.960396e+00	0.0	1.168317e+02	3.960396e+00	0.0	1.188119e+02	3.960396e+00	0.0	1.207921e+02	3.960396e+00	0.0	1.227723e+02	3.960396e+00	0.0	1.247525e+02	3.960396e+00	0.0	1.267327e+02	3.960396e+00	0.0	1.287129e+02	3.960396e+00	0.0	1.306931e+02	3.960396e+00	0.0	1.326733e+02	3.960396e+00	0.0	1.346535e+02	3.960396e+00	0.0	1.366337e+02	3.960396e+00	0.0	1.386139e+02	3.960396e+00	0.0	1.405941e+02	3.960396e+00	0.0	1.425743e+02	3.960396e+00	0.0	1.445545e+02	3.960396e+00	0.0	1.465347e+02	3.960396e+00	0.0	1.485149e+02	3.960396e+00	0.0	1.504950e+02	3.960396e+00	0.0	1.524752e+02	3.960396e+00	0.0	1.544554e+02	3.960396e+00	0.0	1.564356e+02	3.960396e+00	0.0	1.584158e+02	3.960396e+00	0.0	1.603960e+02	3.960396e+00	0.0	1.623762e+02	3.960396e+00	0.0	1.643564e+02	3.960396e+00	0.0	1.663366e+02	3.960396e+00	0.0	1.683168e+02	3.960396e+00	0.0	1.702970e+02	3.960396e+00	0.0	1.722772e+02	3.960396e+00	0.0	1.742574e+02	3.960396e+00	0.0	1.762376e+02	3.960396e+00	0.0	1.782178e+02	3.960396e+00	0.0	1.801980e+02	3.960396e+00	0.0	1.821782e+02	3.960396e+00	0.0	1.841584e+02	3.960396e+00	0.0	1.861386e+02	3.960396e+00	0.0	1.881188e+02	3.960396e+00	0.0	1.900990e+02	3.960396e+00	0.0	1.920792e+02	3.960396e+00	0.0	1.940594e+02	3.960396e+00	0.0	1.960396e+02	3.960396e+00	0.0	1.980198e+02	3.960396e+00	0.0	2.000000e+02	3.960396e+00	0.0	0.000000e+00	5.940594e+00	0.0	1.980198e+00	5.940594e+00	0.0	3.960396e+00	5.940594e+00	0.0	5.940594e+00	5.940594e+00	0.0	7.920792e+00	5.940594e+00	0.0	9.900990e+00	5.940594e+00	0.0	1.188119e+01	5.940594e+00	0.0	1.386139e+01	5.940594e+00	0.0	1.584158e+01	5.940594e+00	0.0	1.782178e+01	5.940594e+00	0.0	1.980198e+01	5.940594e+00	0.0	2.178218e+01	5.940594e+00	0.0	2.376238e+01	5.940594e+00	0.0	2.574257e+01	5.940594e+00	0.0	2.772277e+01	5.940594e+00	0.0	2.970297e+01	5.940594e+00	0.0	3.168317e+01	5.940594e+00	0.0	3.366337e+01	5.940594e+00	0.0	3.564356e+01	5.940594e+00	0.0	3.762376e+01	5.940594e+00	0.0	3.960396e+01	5.940594e+00	0.0	4.158416e+01	5.940594e+00	0.0	4.356436e+01	5.940594e+00	0.0	4.554455e+01	5.940594
[...]
POINT_DATA 10404

SCALARS Height double 1
LOOKUP_TABLE default
4.000000e+00	4.000000e+00	4.000000e+00	4.000000e+00	4.000000e+00	4.000000e+00	4.000000e+00	4.000000e+00	4.000000e+00	4.000000e+00	4.000000e+00	4.000000e+00	4.000000e+00	4.000000e+00	4.000000e+00	4.000000e+00	4.000000e+00	4.000000e+00	4.000000e+00	4.000000e+00	4.000000e+00	3.999999e+00	3.999997e+00	3.999987e+00	3.999943e+00	3.999756e+00	3.998960e+00	3.995556e+00	3.981065e+00	3.924456e+00	3.825795e+00	3.708995e+00	3.584572e+00	3.456852e+00	3.328680e+00	3.202031e+00	3.077826e+00	2.956154e+00	2.836837e+00	2.719773e+00	2.604987e+00	2.492489e+00	2.382179e+00	2.273908e+00	2.167541e+00	2.063164e+00	1.965572e+00	1.917732e+00	1.899011e+00	1.891908e+00	1.903145e+00	1.926708e+00	1.940424e+00	1.944920e+00	1.949714e+00	1.953357e+00	1.958046e+00	1.962599e+00	1.966669e+00	1.969894e+00	1.971840e+00	1.975309e+00	1.980293e+00	1.986437e+00	1.997024e+00	2.012885e+00	2.032160e+00	2.052681e+00	2.063963e+00	2.031205e+00	1.723210e+00	1.169479e+00	1.006518e+00	1.000171e+00	1.000005e+00	1.000000e+00	1.000000e+00	1.000000e+00	1.000000e+00	1.000000e+00	1.000000e+00	1.000000e+00	1.000000e+00	1.000000e+00	1.000000e+00	1.000000e+00	1.000000e+00	1.000000e+00	1.000000e+00	1.000000e+00	1.000000e+00	1.000000e+00	1.000000e+00	1.000000e+00	1.000000e+00	1.000000e+00	1.000000e+00	1.000000e+00	1.000000e+00	1.000000e+00	1.000000e+00	1.000000e+00	4.000000e+00	4.000000e+00	4.000000e+00	4.000000e+00	4.000000e+00	4.000000e+00	4.000000e+00	4.000000e+00	4.000000e+00	4.000000e+00	4.000000e+00	4.000000e+00	4.000000e+00	4.000000e+00	4.000000e+00	4.000000e+00	4.000000e+00	4.000000e+00	4.000000e+00	4.000000e+00	4.000000e+00	4.000000e+00	3.999999e+00	3.999995e+00	3.999977e+00	3.999899e+00	3.999549e+00	3.997833e+00	3.987769e+00	3.924922e+00	3.822197e+00	3.706723e+00	3.584415e+00	3.457744e+00	3.330352e+00	3.204468e+00	3.080737e+00	2.959461e+00	2.840574e+00	2.723903e+00	2.609472e+00	2.497357e+00	2.387404e+00	2.279396e+00	2.173259e+00	2.069127e+00	1.972190e+00	1.924304e+00	1.905101e+00	1.897764e+00	1.907576e+00	1.931801e+00	1.945655e+00	1.951921e+00	1.958802e+00	1.964090e+00	1.969573e+00	1.974824e+00	1.979698e+00	1.983981e+00	1.987222e+00	1.990748e+00	1.996112e+00	2.003800e+00	2.013114e+00	2.026786e+00	2.043433e+00	2.058118e+00	2.069870e+00	2.049136e+00	1.723169e+00	1.106053e+00	1.001276e+00	1.000017e+00	1.000000e+00	1.000000e+00	1.000000e+00	1.000000e+00	1.000000e+00	1.000000e+00	1.000000e+00	1.000000e+00	1.000000e+00	1.000000e+00	1.000000e+00	1.000000e+00	1.000000e+00	1.000000e+00	1.000000e+00	1.000000e+00	1.000000e+00	1.000000e+00	1.000000e+00	1.000000e+00	1.000000e+00	1.000000e+00	1.000000e+00	1.000000e+00	1.000000e+00	1.000000e+00	1.000000e+00	1.000000e+00	4.000000e+00	4.000000e+00	4.000000e+00	4.000000e+00	4.000000e+00	4.000000e+00	4.000000e+00	4.000000e+00	4.000000e+00	4.000000e+00	4.000000e+00	4.000000e+00	4.000000e+00	4.000000e+00	4.000000e+00	4.000000e+00	4.000000e+00	4.000000e+00	4.000000e+00	4.000000e+00	4.000000e+00	4.000000e+00	4.000000e+00	3.999998e+00	3.999990e+00	3.999955e+00	3.999774e+00	3.998633e+00	3.989641e+00	3.921624e+00	3.811150e+00	3.694230e+00	3.571425e+00	3.446519e+00	3.319316e+00	3.192628e+00	3.068134e+00	2.945931e+00	2.826054e+00	2.708799e+00	2.594047e+00	2.481536e+00	2.371301e+00	2.263168e+00	2.156772e+00	2.052114e+00	1.957062e+00	1.911783e+00	1.893182e+00	1.886213e+00	1.897858e+00	1.919698e+00	1.933652e+00	1.945314e+00	1.957163e+00	1.966498e+00	1.975067e+00	1.982877e+00	1.990398e+00	1.996772e+00	2.001620e+00	2.005472e+00	2.011023e+00	2.017112e+00	2.023538e+00	2.028694e+00	2.033700e+00	2.038722e+00	2.040413e+00	2.019999e+00	1.718157e+00	1.111490e+00	1.001245e+00	1.000011e+00	1.000000e+00	1.000000e+00	1.000000e+00	1.000000e+00	1.000000e+00	1.000000e+00	1.000000e+00	1.000000e+00	1.000000e+00	1.000000e+00	1.000000e+00	1.000000e+00	1.000000e+00	1.000000e+00	1.000000e+00	1.000000e+00	1.000000e+00	1.000000e+00	1.000000e+00	1.000000e+00	1.000000e+00	1.000000e+00	1.000000e+00	1.000000e+00	1.000000e+00	1.000000e+00	1.000000e+00	1.000000e+00	4.000000e+00	4.000000e+00	4.000000e+00	4.000000e+00	4.000000e+00	4.000000e+00	4.000000e+00	4.000000e+00	4.000000e+00	4.000000e+00	4.000000e+00	4.000000e+00	4.000000e+00	4.000000e+00	4.000000e+00	4.000000e+00	4.000000e+00	4.000000e+00	4.000000e+00	4.000000e+00	4.000000e+00	4.000000e+00	4.000000e+00	3.999999e+00	3.999997e+00	3.999981e+00	3.999873e+00	3.998978e+00	3.990421e+00	3.917761e+00	3.798742e+00	3.678049e+00	3.556846e+00	3.433585e+00	3.309977e+00	3.184725e+00	3.060373e+00	2.938507e+00	2.819238e+00	2.702527e+00	2.588393e+00	2.476562e+00	2.366817e+00	2.259128e+00	2.153324e+00	2.048899e+00	1.956893e+00	1.914018e+00	1.896136e+00	1.889636e+00	1.901924e+00	1.921060e+00	1.934659e+00	1.949151e+00	1.963484e+00	1.974988e+00	1.984879e+00	1.994192e+00	2.004083e+00	2.013114e+00	2.020272e+00	2.026433e+00	2.031559e+00	2.036030e+00	2.037767e+00	2.037297e+00	2.033017e+00	2.027704e+00	2.023390e+00	1.996213e+00	1.710840e+00	1.114743e+00	1.001335e+00	1.000011e+00	1.000000e+00	1.000000e+00	1.000000e+00	1.000000e+00	1.000000e+00	1.000000e+00	1.000000e+00	1.000000e+00	1.000000e+00	1.000000e+00	1.000000e+00	1.000000e+00	1.000000e+00	1.000000e+00	1.000000e+00	1.000000e+00	1.000000e+00	1.000000e+00	1.000000e+00	1.000000e+00	1.000000e+00	1.000000e+00	1.000000e+00	1.000000e+00	1.000000e+00	1.000000e+00	1.000000e+00	1.000000e+00	4.000000e+00	4.000000e+00	4.000000e+00	4.000000e+00	4.000000e+00	4.000000e+00	4.000000e+00	4.000000e+00	4.000000e+00	4.000000e+00	4.000000e+00	4.000000e+00	4.000000e+00	4.000000e+00	4.000000e+00	4.000000e+00	4.000000e+00	4.000000e+00	4.000000e+00	4.000000e+00	4.000000e+00	4.000000e+00	4.000000e+00	4.000000e+00	3.999999e+00	3.999989e+00	3.999906e+00	3.999021e+00	3.989528e+00	3.909601e+00	3.784022e+00	3.658477e+00	3.536118e+00	3.414658e+00	3.292693e+00	3.171153e+00	3.048399e+00	2.926985e+00	2.808212e+00	2.691810e+00	2.577860e+00	2.466461e+00	2.357101e+00	2.249538e+00	2.143879e+00	2.039398e+00	1.950749e+00	1.911041e+00	1.894955e+00	1.889810e+00	1.903613e+00	1.920124e+00	1.931705e+00	1.946489e+00	1.961496e+00	1.974521e+00	1.985896e+00	1.997018e+00	2.007863e+00	2.018094e+00	2.028676e+00	2.037924e+00	2.042189e+00	2.043741e+00	2.041880e+00	2.033732e+00	2.022900e+00	2.018713e+00	2.013881e+00	1.984765e+00	1.683866e+00	1.100121e+00	1.001054e+00	1.000009e+00	1.000000e+00	1.000000e+00	1.000000e+00	1.000000e+00	1.000000e+00	1.000000e+00	1.000000e+00	1.000000e+00	1.000000e+00	1.000000e+00	1.000000e+00	1.000000e+00	1.000000e+00	1.000000e+00	1.000000e+00	1.000000e+00	1.000000e+00	1.000000e+00	1.000000e+00	1.000000e+00	1.000000e+00	1.000000e+00	1.000000e+00	1.000000e+00	1.000000e+00	1.000000e+00	1.000000e+00	1.000000e+00	4.000000e+00	4.000000e+00	4.000000e+00	4.000000e+00	4.000000e+00	4.000000e+00	4.000000e+00	4.000000e+00	4.000000e+00	4.000000e+00	4.000000e+00	4.000000e+00	4.000000e+00	4.000000e+00	4.000000e+00	4.000000e+00	4.000000e+00	4.000000e+00	4.000000e+00	4.000000e+00	4.000000e+00	4.000000e+00	4.000000e+00	4.000000e+00	3.999999e+00	3.999990e+00	3.999890e+00	3.998790e+00	3.986628e+00	3.894857e+00	3.766100e+00	3.636724e+00	3.511325e+00	3.390136e+00	3.270116e+00	3.150754e+00	3.032669e+00	2.913429e+00	2.795204e+00	2.679525e+00	2.566055e+00	2.454766e+00	2.345866e+00	2.238799e+00	2.133086e+00	2.028187e+00	1.943778e+00	1.907563e+00	1.893600e+00	1.890702e+00	1.908770e+00	1.923567e+00	1.929740e+00	1.940053e+00	1.953171e+00	1.966723e+00	1.978730e+00	1.989838e+00	2.000023e+00	2.009477e+00	2.017887e+00	2.026384e+00	2.035915e+00	2.041139e+00	2.037429e+00	2.027578e+00	2.017398e+00	2.016848e+00	2.012674e+00	1.984445e+00	1.648775e+00	1.074302e+00	1.000631e+00	1.000006e+00	1.000000e+00	1.000000e+00	1.000000e+00	1.000000e+00	1.000000e+00	1.000000e+00	1.000000e+00	1.000000e+00	1.000000e+00	1.000000e+00	1.000000e+00	1.000000e+00	1.000000e+00	1.000000e+00	1.000000e+00	1.000000e+00	1.000000e+00	1.000000e+00	1.000000e+00	1.000000e+00	1.000000e+00	1.000000e+00	1.000000e+00	1.000000e+00	1.000000e+00	1.000000e+00	1.000000e+00	1.000000e+00	4.000000e+00	4.000000e+00	4.000000e+00	4.000000e+00	4.000000e+00	4.000000e+00	4.000000e+00	4.000000e+00	4.000000e+00	4.000000e+00	4.000000e+00	4.000000e+00	4.000000e+00	4.000000e+00	4.000000e+00	4.000000e+00	4.000000e+00	4.000000e+00	4.000000e+00	4.000000e+00	4.000000e+00	4.000000e+00	4.000000e+00	4.000000e+00	3.999999e+00	3.999986e+00	3.999845e+00	3.998267e+00	3.978769e+00	3.873733e+00	3.743916e+00	3.612922e+00	3.484456e+00	3.361609e+00	3.243292e+00	3.126338e+00	3.010507e+00	2.896032e+00	2.780468e+00	2.665730e+00	2.553129e+00	2.442339e+00	2.333721e+00	2.227143e+00	2.121775e+00	2.016509e+00	1.936499e+00	1.903943e+00	1.892040e+00	1.892687e+00	1.915278e+00	1.927678e+00	1.930935e+00	1.937238e+00	1.945570e+00	1.955413e+00	1.966377e+00	1.976368e+00	1.985643e+00	1.994707e+00	2.002747e+00	2.011401e+00	2.020926e+00	2.027246e+00	2.027735e+00	2.021683e+00	2.021048e+00	2.023157e+00	2.025650e+00	1.991174e+00	1.586751e+00	1.043506e+00	1.000391e+00	1.000004e+00	1.000000e+00	1.000000e+00	1.000000e+00	1.000000e+00	1.000000e+00	1.000000e+00	1.000000e+00	1.000000e+00	1.000000e+00	1.000000e+00	1.000000e+00	1.000000e+00	1.000000e+00	1.000000e+00	1.000000e+00	1.000000e+00	1.000000e+00	1.000000e+00	1.000000e+00	1.000000e+00	1.000000e+00	1.000000e+00	1.000000e+00	1.000000e+00	1.000000e+00	1.000000e+00	1.000000e+00	1.000000e+00	4.000000e+00	4.000000e+00	4.000000e+00	4.000000e+00	4.000000e+00	4.000000e+00	4.000000e+00	4.000000e+00	4.000000e+00	4.000000e+00	4.000000e+00	4.000000e+00	4.000000e+00	4.000000e+00	4.000000e+00	4.000000e+00	4.000000e+00	4.000000e+00	4.000000e+00	4.000000e+00	4.000000e+00	4.000000e+00	4.000000e+00	4.000000e+00	3.999998e+00	3.999978e+00	3.999748e+00	3.997053e+00	3.964206e+00	3.846238e+00	3.716114e+00	3.585814e+00	3.456897e+00	3.332249e+00	3.213483e+00	3.098563e+00	2.984767e+00	2.872285e+00	2.761469e+00	2.650063e+00	2.538735e+00	2.429114e+00	2.321058e+00	2.214908e+00	2.110138e+00	2.005179e+00	1.930745e+00	1.901782e+00	1.891348e+00	1.896737e+00	1.921323e+00	1.932090e+00	1.934163e+00	1.938711e+00	1.944375e+00	1.950301e+00	1.957175e+00	1.965412e+00	1.973226e+00	1.981012e+00	1.987638e+00	1.994211e+00	2.001714e+00	2.008147e+00	2.015741e+00	2.021215e+00	2.032693e+00	2.046300e+00	2.050200e+00	1.993382e+00	1.494682e+00	1.017842e+00	1.000215e+00	1.000002e+00	1.000000e+00	1.000000e+00	1.000000e+00	1.000000e+00	1.000000e+00	1.000000e+00	1.000000e+00	1.000000e+00	1.000000e+00	1.000000e+00	1.000000e+00	1.000000e+00	1.000000e+00	1.000000e+00	1.000000e+00	1.000000e+00	1.000000e+00	1.000000e+00	1.000000e+00	1.000000e+00	1.000000e+00	1.000000e+00	1.000000e+00	1.000000e+00	1.000000e+00	1.000000e+00	1.000000e+00	1.000000e+00	4.000000e+00	4.000000e+00	4.000000e+00	4.000000e+00	4.000000e+00	4.000000e+00	4.000000e+00	4.000000e+00	4.000000e+00	4.000000e+00	4.000000e+00	4.000000e+00	4.000000e+00	4.000000e+00	4.000000e+00	4.000000e+00	4.000000e+00	4.000000e+00	4.000000e+00	4.000000e+00	4.000000e+00	4.000000e+00	4.000000e+00	4.000000e+00	3.999997e+00	3.999961e+00	3.999541e+00	3.994512e+00	3.939734e+00	3.813314e+00	3.683024e+00	3.554425e+00	3.428228e+00	3.303618e+00	3.183008e+00	3.067440e+00	2.955489e+00	2.845011e+00	2.735722e+00	2.628010e+00	2.521007e+00	2.413830e+00	2.307308e+00	2.202034e+00	2.098199e+00	1.994844e+00	1.927084e+00	1.901424e+00	1.892115e+00	1.901662e+00	1.926577e+00	1.936275e+00	1.938097e+00	1.942484e+00	1.947478e+00	1.952747e+00	1.958678e+00	1.963124e+00	1.968574e+00	1.974222e+00	1.980362e+00	1.983587e+00	1.987640e+00	1.996522e+00	2.006476e+00	2.026144e+00	2.052030e+00	2.065499e+00	2.070372e+00	1.980382e+00	1.378617e+00	1.010313e+00	1.000106e+00	1.000001e+00	1.000000e+00	1.000000e+00	1.000000e+00	1.000000e+00	1.000000e+00	1.000000e+00	1.000000e+00	1.000000e+00	1.000000e+00	1.000000e+00	1.000000e+00	1.000000e+00	1.000000e+00	1.000000e+00	1.000000e+00	1.000000e+00	1.000000e+00	1.000000e+00	1.000000e+00	1.000000e+00	1.000000e+00	1.000000e+00	1.000000e+00	1.000000e+00	1.000000e+00	1.000000e+00	1.000000e+00	1.000000e+00	4.000000e+00	4.000000e+00	4.000000e+00	4.000000e+00	4.000000e+00	4.000000e+00	4.000000e+00	4.000000e+00	4.000000e+00	4.000000e+00	4.000000e+00	4.000000e+00	4.000000e+00	4.000000e+00	4.000000e+00	4.000000e+00	4.000000e+00	4.000000e+00	4.000000e+00	4.000000e+00	4.000000e+00	4.000000e+00	4.000000e+00	3.999999e+00	3.999994e+00	3.999924e+00	3.999087e+00	3.989442e+00	3.902644e+00	3.774595e+00	3.645759e+00	3.518992e+00	3.396137e+00	3.274743e+00	3.154260e+00	3.037307e+00	2.923828e+00	2.813986e+00	2.706823e+00	2.600656e+00	2.495724e+00	2.392350e+00	2.289810e+00	2.187106e+00	2.085115e+00	1.984487e+00	1.924634e+00	1.902141e+00	1.893992e+00	1.906687e+00	1.931358e+00	1.940887e+00	1.943133e+00	1.948270e+00	1.953907e+00	1.959580e+00	1.965849e+00	1.970632e+00	1.976201e+00	1.980553e+00	1.985823e+00	1.988655e+00	1.993158e+00	1.999512e+00	2.012133e+00	2.035493e+00	2.055413e+00	2.069735e+00	2.073077e+00	1.934797e+00	1.279072e+00	1.005888e+00	1.000051e+00	1.000000e+00	1.000000e+00	1.000000e+00	1.000000e+00	1.000000e+00	1.000000e+00	1.000000e+00	1.000000e+00	1.000000e+00	1.000000e+00	1.000000e+00	1.000000e+00	1.000000e+00	1.000000e+00	1.000000e+00	1.000000e+00	1.000000e+00	1.000000e+00	1.000000e+00	1.000000e+00	1.000000e+00	1.000000e+00	1.000000e+00	1.000000e+00	1.000000e+00	1.000000e+00	1.000000e+00	1.000000e+00	1.000000e+00	4.000000e+00	4.000000e+00	4.000000e+00	4.000000e+00	4.000000e+00	4.000000e+00	4.000000e+00	4.000000e+00	4.000000e+00	4.000000e+00	4.000000e+00	4.000000e+00	4.000000e+00	4.000000e+00	4.000000e+00	4.000000e+00	4.000000e+00	4.000000e+00	4.000000e+00	4.000000e+00	4.000000e+00	4.000000e+00	4.000000e+00	3.999999e+00	3.999987e+00	3.999838e+00	3.998034e+00	3.973728e+00	3.859979e+00	3.730580e+00	3.604026e+00	3.480301e+00	3.360050e+00	3.242511e+00	3.124644e+00	3.007931e+00	2.893786e+00	2.782930e+00	2.675461e+00	2.570526e+00	2.467048e+00	2.365074e+00	2.264895e+00	2.166331e+00	2.068413e+00	1.972473e+00	1.921836e+00	1.903061e+00	1.896749e+00	1.912502e+00	1.937463e+00	1.949587e+00	1.954648e+00	1.961208e+00	1.967260e+00	1.972111e+00	1.977423e+00	1.982692e+00	1.989094e+00	1.994424e+00	1.997777e+00	2.002293e+00	2.006664e+00	2.017544e+00	2.030234e+00	2.044065e+00	2.056215e+00	2.066937e+00	2.061498e+00	1.865787e+00	1.199362e+00	1.003333e+00	1.000026e+00	1.000000e+00	1.000000e+00	1.000000e+00	1.000000e+00	1.000000e+00	1.000000e+00	1.000000e+00	1.000000e+00	1.000000e+00	1.000000e+00	1.000000e+00	1.000000e+00	1.000000e+00	1.000000e+00	1.000000e+00	1.000000e+00	1.000000e+00	1.000000e+00	1.000000e+00	1.000000e+00	1.000000e+00	1.000000e+00	1.000000e+00	1.000000e+00	1.000000e+00	1.000000e+00	1.000000e+00	1.000000e+00	1.000000e+00	4.000000e+00	4.000000e+00	4.000000e+00	4.000000e+00	4.000000e+00	4.000000e+00	4.000000e+00	4.000000e+00	4.000000e+00	4.000000e+00	4.000000e+00	4.000000e+00	4.000000e+00	4.000000e+00	4.000000e+00	4.000000e+00	4.000000e+00	4.000000e+00	4.000000e+00	4.000000e+00	4.000000e+00	4.000000e+00	4.000000e+00	3.999997e+00	3.999969e+00	3.999611e+00	3.995026e+00	3.941272e+00	3.813806e+00	3.683371e+00	3.558094e+00	3.437700e+00	3.320185e+00	3.205734e+00	3.091815e+00	2.977425e+00	2.863922e+00	2.752349e+00	2.644355e+00	2.539443e+00	2.436725e+00	2.335890e+00	2.237124e+00	2.140713e+00	2.046489e+00	1.958996e+00	1.917518e+00	1.903559e+00	1.900633e+00	1.920452e+00	1.946280e+00	1.961891e+00	1.969493e+00	1.976375e+00	1.982097e+00	1.986611e+00	1.991670e+00	1.997532e+00	2.003684e+00	2.007448e+00	2.012318e+00	2.018721e+00	2.027037e+00	2.034383e+00	2.042065e+00	2.045964e+00	2.049772e+00	2.053818e+00	2.038323e+00	1.774150e+00	1.135572e+00	1.001674e+00	1.000013e+00	1.000000e+00	1.000000e+00	1.000000e+00	1.000000e+00	1.000000e+00	1.000000e+00	1.000000e+00	1.000000e+00	1.000000e+00	1.000000e+00	1.000000e+00	1.000000e+00	1.000000e+00	1.000000e+00	1.000000e+00	1.000000e+00	1.000000e+00	1.000000e+00	1.000000e+00	1.000000e+00	1.000000e+00	1.000000e+00	1.000000e+00	1.000000e+00	1.000000e+00	1.000000e+00	1.000000e+00	1.000000e+00	1.000000e+00	4.000000e+00	4.000000e+00	4.000000e+00	4.000000e+00	4.000000e+00	4.000000e+00	4.000000e+00	4.000000e+00	4.000000e+00	4.000000e+00	4.000000e+00	4.000000e+00	4.000000e+00	4.000000e+00	4.000000e+00	4.000000e+00	4.000000e+00	4.000000e+00	4.000000e+00	4.000000e+00	4.000000e+00	4.000000e+00	3.999999e+00	3.999994e+00	3.999919e+00	3.998972e+00	3.987056e+00	3.890246e+00	3.760985e+00	3.633126e+00	3.509440e+00	3.391517e+00	3.276809e+00	3.164857e+00	3.054698e+00	2.943402e+00	2.832932e+00	2.722435e+00	2.613936e+00	2.508212e+00	2.405588e+00	2.305451e+00	2.207650e+00	2.112844e+00	2.020930e+00	1.945447e+00	1.912440e+00	1.903653e+00	1.906929e+00	1.928484e+00	1.953964e+00	1.972889e+00	1.982997e+00	1.989920e+00	1.995682e+00	2.000143e+00	2.003750e+00	2.008784e+00	2.014138e+00	2.017561e+00	2.024049e+00	2.033087e+00	2.038231e+00	2.043674e+00	2.044172e+00	2.041469e+00	2.041782e+00	2.043197e+00	2.013585e+00	1.670074e+00	1.078735e+00	1.000665e+00	1.000007e+00	1.000000e+00	1.000000e+00	1.000000e+00	1.000000e+00	1.000000e+00	1.000000e+00	1.000000e+00	1.000000e+00	1.000000e+00	1.000000e+00	1.000000e+00	1.000000e+00	1.000000e+00	1.000000e+00	1.000000e+00	1.000000e+00	1.000000e+00	1.000000e+00	1.000000e+00	1.000000e+00	1.000000e+00	1.000000e+00	1.000000e+00	1.000000e+00	1.000000e+00	1.000000e+00	1.000000e+00	1.000000e+00	1.000000e+00	4.000000e+00	4.000000e+00	4.000000e+00	4.000000e+00	4.000000e+00	4.000000e+00	4.000000e+00	4.000000e+00	4.000000e+00	4.000000e+00	4.000000e+00	4.000000e+00	4.000000e+00	4.000000e+00	4.000000e+00	4.000000e+00	4.000000e+00	4.000000e+00	4.000000e+00	4.000000e+00	4.000000e+00	4.000000e+00	3.999999e+00	3.999982e+00	3.999768e+00	3.996951e+00	3.959724e+00	3.834711e+00	3.703446e+00	3.578247e+00	3.458304e+00	3.343041e+00	3.230672e+00	3.120621e+00	3.012381e+00	2.905823e+00	2.797942e+00	2.691018e+00	2.584116e+00	2.478866e+00	2.375624e+00	2.275279e+00	2.177981e+00	2.084316e+00	1.995443e+00	1.933920e+00	1.910164e+00	1.905457e+00	1.913860e+00	1.933843e+00	1.957703e+00	1.979076e+00	1.992374e+00	2.000011e+00	2.005951e+00	2.010481e+00	2.013521e+00	2.017556e+00	2.022050e+00	2.025635e+00	2.030794e+00	2.036651e+00	2.039970e+00	2.039896e+00	2.038121e+00	2.035385e+00	2.035826e+00	2.033679e+00	1.988380e+00	1.550123e+00	1.030833e+00	1.000316e+00	1.000003e+00	1.000000e+00	1.000000e+00	1.000000e+00	1.000000e+00	1.000000e+00	1.000000e+00	1.000000e+00	1.000000e+00	1.000000e+00	1.000000e+00	1.000000e+00	1.000000e+00	1.000000e+00	1.000000e+00	1.000000e+00	1.000000e+00	1.000000e+00	1.000000e+00	1.000000e+00	1.000000e+00	1.000000e+00	1.000000e+00	1.000000e+00	1.000000e+00	1.000000e+00	1.000000e+00	1.000000e+00	1.000000e+00	1.000000e+00	4.000000e+00	4.000000e+00	4.000000e+00	4.000000e+00	4.000000e+00	4.000000e+00	4.000000e+00	4.000000e+00	4.000000e+00	4.000000e+00	4.000000e+00	4.000000e+00	4.000000e+00	4.000000e+00	4.000000e+00	4.000000e+00	4.000000e+00	4.000000e+00	4.000000e+00	4.000000e+00	4.000000e+00	4.000000e+00	3.999996e+00	3.999944e+00	3.999263e+00	3.990627e+00	3.904395e+00	3.771962e+00	3.642046e+00	3.520546e+00	3.404962e+00	3.292620e+00	3.182402e+00	3.073964e+00	2.967387e+00	2.862991e+00	2.759319e+00	2.655101e+00	2.552157e+00	2.448948e+00	2.347045e+00	2.247335e+00	2.150460e+00	2.057756e+00	1.975208e+00	1.929831e+00	1.914494e+00	1.912150e+00	1.921300e+00	1.936389e+00	1.956968e+00	1.978922e+00	1.995664e+00	2.005846e+00	2.013170e+00	2.018069e+00	2.022043e+00	2.024410e+00	2.027189e+00	2.029812e+00	2.032424e+00	2.034085e+00	2.034789e+00	2.033301e+00	2.031177e+00	2.030725e+00	2.031436e+00	2.026867e+00	1.949613e+00	1.402485e+00	1.011991e+00	1.000132e+00	1.000001e+00	1.000000e+00	1.000000e+00	1.000000e+00	1.000000e+00	1.000000e+00	1.000000e+00	1.000000e+00	1.000000e+00	1.000000e+00	1.000000e+00	1.000000e+00	1.000000e+00	1.000000e+00	1.000000e+00	1.000000e+00	1.000000e+00	1.000000e+00	1.000000e+00	1.000000e+00	1.000000e+00	1.000000e+00	1.000000e+00	1.000000e+00	1.000000e+00	1.000000e+00	1.000000e+00	1.000000e+00	1.000000e+00	1.000000e+00	4.000000e+00	4.000000e+00	4.000000e+00	4.000000