# vtk DataFile Version 3.0
vtk output
ASCII
DATASET STRUCTURED_GRID
DIMENSIONS 101 101 1
POINTS 10201 double
0.000000e+00	0.000000e+00	0.0	1.000000e-02	0.000000e+00	0.0	2.000000e-02	0.000000e+00	0.0	3.000000e-02	0.000000e+00	0.0	4.000000e-02	0.000000e+00	0.0	5.000000e-02	0.000000e+00	0.0	6.000000e-02	0.000000e+00	0.0	7.000000e-02	0.000000e+00	0.0	8.000000e-02	0.000000e+00	0.0	9.000000e-02	0.000000e+00	0.0	1.000000e-01	0.000000e+00	0.0	1.100000e-01	0.000000e+00	0.0	1.200000e-01	0.000000e+00	0.0	1.300000e-01	0.000000e+00	0.0	1.400000e-01	0.000000e+00	0.0	1.500000e-01	0.000000e+00	0.0	1.600000e-01	0.000000e+00	0.0	1.700000e-01	0.000000e+00	0.0	1.800000e-01	0.000000e+00	0.0	1.900000e-01	0.000000e+00	0.0	2.000000e-01	0.000000e+00	0.0	2.100000e-01	0.000000e+00	0.0	2.200000e-01	0.000000e+00	0.0	2.300000e-01	0.000000e+00	0.0	2.400000e-01	0.000000e+00	0.0	2.500000e-01	0.000000e+00	0.0	2.600000e-01	0.000000e+00	0.0	2.700000e-01	0.000000e+00	0.0	2.800000e-01	0.000000e+00	0.0	2.900000e-01	0.000000e+00	0.0	3.000000e-01	0.000000e+00	0.0	3.100000e-01	0.000000e+00	0.0	3.200000e-01	0.000000e+00	0.0	3.300000e-01	0.000000e+00	0.0	3.400000e-01	0.000000e+00	0.0	3.500000e-01	0.000000e+00	0.0	3.600000e-01	0.000000e+00	0.0	3.700000e-01	0.000000e+00	0.0	3.800000e-01	0.000000e+00	0.0	3.900000e-01	0.000000e+00	0.0	4.000000e-01	0.000000e+00	0.0	4.100000e-01	0.000000e+00	0.0	4.200000e-01	0.000000e+00	0.0	4.300000e-01	0.000000e+00	0.0	4.400000e-01	0.000000e+00	0.0	4.500000e-01	0.000000e+00	0.0	4.600000e-01	0.000000e+00	0.0	4.700000e-01	0.000000e+00	0.0	4.800000e-01	0.000000e+00	0.0	4.900000e-01	0.000000e+00	0.0	5.000000e-01	0.000000e+00	0.0	5.100000e-01	0.000000e+00	0.0	5.200000e-01	0.000000e+00	0.0	5.300000e-01	0.000000e+00	0.0	5.400000e-01	0.000000e+00	0.0	5.500000e-01	0.000000e+00	0.0	5.600000e-01	0.000000e+00	0.0	5.700000e-01	0.000000e+00	0.0	5.800000e-01	0.000000e+00	0.0	5.900000e-01	0.000000e+00	0.0	6.000000e-01	0.000000e+00	0.0	6.100000e-01	0.000000e+00	0.0	6.200000e-01	0.000000e+00	0.0	6.300000e-01	0.000000e+00	0.0	6.400000e-01	0.000000e+00	0.0	6.500000e-01	0.000000e+00	0.0	6.600000e-01	0.000000e+00	0.0	6.700000e-01	0.000000e+00	0.0	6.800000e-01	0.000000e+00	0.0	6.900000e-01	0.000000e+00	0.0	7.000000e-01	0.000000e+00	0.0	7.100000e-01	0.000000e+00	0.0	7.200000e-01	0.000000e+00	0.0	7.300000e-01	0.000000e+00	0.0	7.400000e-01	0.000000e+00	0.0	7.500000e-01	0.000000e+00	0.0	7.600000e-01	0.000000e+00	0.0	7.700000e-01	0.000000e+00	0.0	7.800000e-01	0.000000e+00	0.0	7.900000e-01	0.000000e+00	0.0	8.000000e-01	0.000000e+00	0.0	8.100000e-01	0.000000e+00	0.0	8.200000e-01	0.000000e+00	0.0	8.300000e-01	0.000000e+00	0.0	8.400000e-01	0.000000e+00	0.0	8.500000e-01	0.000000e+00	0.0	8.600000e-01	0.000000e+00	0.0	8.700000e-01	0.000000e+00	0.0	8.800000e-01	0.000000e+00	0.0	8.900000e-01	0.000000e+00	0.0	9.000000e-01	0.000000e+00	0.0	9.100000e-01	0.000000e+00	0.0	9.200000e-01	0.000000e+00	0.0	9.300000e-01	0.000000e+00	0.0	9.400000e-01	0.000000e+00	0.0	9.500000e-01	0.000000e+00	0.0	9.600000e-01	0.000000e+00	0.0	9.700000e-01	0.000000e+00	0.0	9.800000e-01	0.000000e+00	0.0	9.900000e-01	0.000000e+00	0.0	1.000000e+00	0.000000e+00	0.0	0.000000e+00	1.000000e-02	0.0	1.000000e-02	1.000000e-02	0.0	2.000000e-02	1.000000e-02	0.0	3.000000e-02	1.000000e-02	0.0	4.000000e-02	1.000000e-02	0.0	5.000000e-02	1.000000e-02	0.0	6.000000e-02	1.000000e-02	0.0	7.000000e-02	1.000000e-02	0.0	8.000000e-02	1.000000e-02	0.0	9.000000e-02	1.000000e-02	0.0	1.000000e-01	1.000000e-02	0.0	1.100000e-01	1.000000e-02	0.0	1.200000e-01	1.000000e-02	0.0	1.300000e-01	1.000000e-02	0.0	1.400000e-01	1.000000e-02	0.0	1.500000e-01	1.000000e-02	0.0	1.600000e-01	1.000000e-02	0.0	1.700000e-01	1.000000e-02	0.0	1.800000e-01	1.000000e-02	0.0	1.900000e-01	1.000000e-02	0.0	2.000000e-01	1.000000e-02	0.0	2.100000e-01	1.000000e-02	0.0	2.200000e-01	1.000000e-02	0.0	2.300000e-01	1.000000e-02	0.0	2.400000e-01	1.000000e-02	0.0	2.500000e-01	1.000000e-02	0.0	2.600000e-01	1.000000e-02	0.0	2.700000e-01	1.000000e-02	0.0	2.800000e-01	1.000000e-02	0.0	2.900000e-01	1.000000e-02	0.0	3.000000e-01	1.000000e-02	0.0	3.100000e-01	1.000000e-02	0.0	3.200000e-01	1.000000e-02	0.0	3.300000e-01	1.000000e-02	0.0	3.400000e-01	1.000000e-02	0.0	3.500000e-01	1.000000e-02	0.0	3.600000e-01	1.000000e-02	0.0	3.700000e-01	1.000000e-02	0.0	3.800000e-01	1.000000e-02	0.0	3.900000e-01	1.000000e-02	0.0	4.000000e-01	1.000000e-02	0.0	4.100000e-01	1.000000e-02	0.0	4.200000e-01	1.000000e-02	0.0	4.300000e-01	1.000000e-02	0.0	4.400000e-01	1.000000e-02	0.0	4.500000e-01	1.000000e-02	0.0	4.600000e-01	1.000000e-02	0.0	4.700000e-01	1.000000e-02	0.0	4.800000e-01	1.000000e-02	0.0	4.900000e-01	1.000000e-02	0.0	5.000000e-01	1.000000e-02	0.0	5.100000e-01	1.000000e-02	0.0	5.200000e-01	1.000000e-02	0.0	5.300000e-01	1.000000e-02	0.0	5.400000e-01	1.000000e-02	0.0	5.500000e-01	1.000000e-02	0.0	5.600000e-01	1.000000e-02	0.0	5.700000e-01	1.000000e-02	0.0	5.800000e-01	1.000000e-02	0.0	5.900000e-01	1.000000e-02	0.0	6.000000e-01	1.000000e-02	0.0	6.100000e-01	1.000000e-02	0.0	6.200000e-01	1.000000e-02	0.0	6.300000e-01	1.000000e-02	0.0	6.400000e-01	1.000000e-02	0.0	6.500000e-01	1.000000e-02	0.0	6.600000e-01	1.000000e-02	0.0	6.700000e-01	1.000000e-02	0.0	6.800000e-01	1.000000e-02	0.0	6.900000e-01	1.000000e-02	0.0	7.000000e-01	1.000000e-02	0.0	7.100000e-01	1.000000e-02	0.0	7.200000e-01	1.000000e-02	0.0	7.300000e-01	1.000000e-02	0.0	7.400000e-01	1.000000e-02	0.0	7.500000e-01	1.000000e-02	0.0	7.600000e-01	1.000000e-02	0.0	7.700000e-01	1.000000e-02	0.0	7.800000e-01	1.000000e-02	0.0	7.900000e-01	1.000000e-02	0.0	8.000000e-01	1.000000e-02	0.0	8.100000e-01	1.000000e-02	0.0	8.200000e-01	1.000000e-02	0.0	8.300000e-01	1.000000e-02	0.0	8.400000e-01	1.000000e-02	0.0	8.500000e-01	1.000000e-02	0.0	8.600000e-01	1.000000e-02	0.0	8.700000e-01	1.000000e-02	0.0	8.800000e-01	1.000000e-02	0.0	8.900000e-01	1.000000e-02	0.0	9.000000e-01	1.000000e-02	0.0	9.100000e-01	1.000000e-02	0.0	9.200000e-01	1.000000e-02	0.0	9.300000e-01	1.000000e-02	0.0	9.400000e-01	1.000000e-02	0.0	9.500000e-01	1.000000e-02	0.0	9.600000e-01	1.000000e-02	0.0	9.700000e-01	1.000000e-02	0.0	9.800000e-01	1.000000e-02	0.0	9.900000e-01	1.000000e-02	0.0	1.000000e+00	1.000000e-02	0.0	0.000000e+00	2.000000e-02	0.0	1.000000e-02	2.000000e-02	0.0	2.000000e-02	2.000000e-02	0.0	3.000000e-02	2.000000e-02	0.0	4.000000e-02	2.000000e-02	0.0	5.000000e-02	2.000000e-02	0.0	6.000000e-02	2.000000e-02	0.0	7.000000e-02	2.000000e-02	0.0	8.000000e-02	2.000000e-02	0.0	9.000000e-02	2.000000e-02	0.0	1.000000e-01	2.000000e-02	0.0	1.100000e-01	2.000000e-02	0.0	1.200000e-01	2.000000e-02	0.0	1.300000e-01	2.000000e-02	0.0	1.400000e-01	2.000000e-02	0.0	1.500000e-01	2.000000e-02	0.0	1.600000e-01	2.000000e-02	0.0	1.700000e-01	2.000000e-02	0.0	1.800000e-01	2.000000e-02	0.0	1.900000e-01	2.000000e-02	0.0	2.000000e-01	2.000000e-02	0.0	2.100000e-01	2.000000e-02	0.0	2.200000e-01	2.000000e-02	0.0	2.300000e-01	2.000000e-02	0.0	2.400000e-01	2.000000e-02	0.0	2.500000e-01	2.000000e-02	0.0	2.600000e-01	2.000000e-02	0.0	2.700000e-01	2.000000e-02	0.0	2.800000e-01	2.000000e-02	0.0	2.900000e-01	2.000000e-02	0.0	3.000000e-01	2.000000e-02	0.0	3.100000e-01	2.000000e-02	0.0	3.200000e-01	2.000000e-02	0.0	3.300000e-01	2.000000e-02	0.0	3.400000e-01	2.000000e-02	0.0	3.500000e-01	2.000000e-02	0.0	3.600000e-01	2.000000e-02	0.0	3.700000e-01	2.000000e-02	0.0	3.800000e-01	2.000000e-02	0.0	3.900000e-01	2.000000e-02	0.0	4.000000e-01	2.000000e-02	0.0	4.100000e-01	2.000000e-02	0.0	4.200000e-01	2.000000e-02	0.0	4.300000e-01	2.000000e-02	0.0	4.400000e-01	2.000000e-02	0.0	4.500000e-01	2.000000e-02	0.0	4.600000e-01	2.000000e-02	0.0	4.700000e-01	2.000000e-02	0.0	4.800000e-01	2.000000e-02	0.0	4.900000e-01	2.000000e-02	0.0	5.000000e-01	2.000000e-02	0.0	5.100000e-01	2.000000e-02	0.0	5.200000e-01	2.000000e-02	0.0	5.300000e-01	2.000000e-02	0.0	5.400000e-01	2.000000e-02	0.0	5.500000e-01	2.000000e-02	0.0	5.600000e-01	2.000000e-02	0.0	5.700000e-01	2.000000e-02	0.0	5.800000e-01	2.000000e-02	0.0	5.900000e-01	2.000000e-02	0.0	6.000000e-01	2.000000e-02	0.0	6.100000e-01	2.000000e-02	0.0	6.200000e-01	2.000000e-02	0.0	6.300000e-01	2.000000e-02	0.0	6.400000e-01	2.000000e-02	0.0	6.500000e-01	2.000000e-02	0.0	6.600000e-01	2.000000e-02	0.0	6.700000e-01	2.000000e-02	0.0	6.800000e-01	2.000000e-02	0.0	6.900000e-01	2.000000e-02	0.0	7.000000e-01	2.000000e-02	0.0	7.100000e-01	2.000000e-02	0.0	7.200000e-01	2.000000e-02	0.0	7.300000e-01	2.000000e-02	0.0	7.400000e-01	2.000000e-02	0.0	7.500000e-01	2.000000e-02	0.0	7.600000e-01	2.000000e-02	0.0	7.700000e-01	2.000000e-02	0.0	7.800000e-01	2.000000e-02	0.0	7.900000e-01	2.000000e-02	0.0	8.000000e-01	2.000000e-02	0.0	8.100000e-01	2.000000e-02	0.0	8.200000e-01	2.000000e-02	0.0	8.300000e-01	2.000000e-02	0.0	8.400000e-01	2.000000e-02	0.0	8.500000e-01	2.000000e-02	0.0	8.600000e-01	2.000000e-02	0.0	8.700000e-01	2.000000e-02	0.0	8.800000e-01	2.000000e-02	0.0	8.900000e-01	2.000000e-02	0.0	9.000000e-01	2.000000e-02	0.0	9.100000e-01	2.000000e-02	0.0	9.200000e-01	2.000000e-02	0.0	9.300000e-01	2.000000e-02	0.0	9.400000e-01	2.000000e-02	0.0	9.500000e-01	2.000000e-02	0.0	9.600000e-01	2.000000e-02	0.0	9.700000e-01	2.000000e-02	0.0	9.800000e-01	2.000000e-02	0.0	9.900000e-01	2.000000e-02	0.0	1.000000e+00	2.000000e-02	0.0	0.000000e+00	3.000000e-02	0.0	1.000000e-02	3.000000e-02	0.0	2.000000e-02	3.000000e-02	0.0	3.000000e-02	3.000000e-02	0.0	4.000000e-02	3.000000e-02	0.0	5.000000e-02	3.000000e-02	0.0	6.000000e-02	3.000000e-02	0.0	7.000000e-02	3.000000e-02	0.0	8.000000e-02	3.000000e-02	0.0	9.000000e-02	3.000000e-02	0.0	1.000000e-01	3.000000e-02	0.0	1.100000e-01	3.000000e-02	0.0	1.200000e-01	3.000000e-02	0.0	1.300000e-01	3.000000e-02	0.0	1.400000e-01	3.000000e-02	0.0	1.500000e-01	3.000000e-02	0.0	1.600000e-01	3.000000e-02	0.0	1.700000e-01	3.000000e-02	0.0	1.800000e-01	3.000000e-02	0.0	1.900000e-01	3.000000e-02	0.0	2.000000e-01	3.000000e-02	0.0	2.100000e-01	3.000000e-02	0.0	2.200000e-01	3.000000e-02	0.0	2.300000e-01	3.000000e-02	0.0	2.400000e-01	3.000000e-02	0.0	2.500000e-01	3.000000e-02	0.0	2.600000e-01	3.000000
[...]
POINT_DATA 10201

SCALARS Height double 1
LOOKUP_TABLE default
9.991212e-01	9.991285e-01	9.991305e-01	9.991272e-01	9.991268e-01	9.991285e-01	9.991301e-01	9.991309e-01	9.991318e-01	9.991335e-01	9.991357e-01	9.991363e-01	9.991329e-01	9.991263e-01	9.991177e-01	9.991080e-01	9.990998e-01	9.990956e-01	9.990960e-01	9.990981e-01	9.990982e-01	9.990890e-01	9.990754e-01	9.990638e-01	9.990568e-01	9.990497e-01	9.990436e-01	9.990371e-01	9.990311e-01	9.990244e-01	9.990154e-01	9.990029e-01	9.989865e-01	9.989664e-01	9.989461e-01	9.989270e-01	9.989088e-01	9.988906e-01	9.988730e-01	9.988555e-01	9.988375e-01	9.988187e-01	9.987987e-01	9.987774e-01	9.987546e-01	9.987300e-01	9.987033e-01	9.986745e-01	9.986437e-01	9.986108e-01	9.985756e-01	9.985377e-01	9.984961e-01	9.984498e-01	9.983980e-01	9.983413e-01	9.982841e-01	9.982295e-01	9.981841e-01	9.981774e-01	9.982676e-01	9.986915e-01	1.000006e+00	1.003032e+00	1.007927e+00	1.013231e+00	1.016906e+00	1.018246e+00	1.018202e+00	1.017353e+00	1.015388e+00	1.012097e+00	1.007496e+00	1.002028e+00	9.962500e-01	9.906961e-01	9.858315e-01	9.821407e-01	9.798725e-01	9.788374e-01	9.786428e-01	9.789333e-01	9.801390e-01	9.826144e-01	9.864810e-01	9.914321e-01	9.969742e-01	1.002655e+00	1.007930e+00	1.012270e+00	1.015301e+00	1.017082e+00	1.017823e+00	1.017780e+00	1.016201e+00	1.012203e+00	1.006636e+00	1.001599e+00	9.985192e-01	9.972383e-01	9.968698e-01	9.991571e-01	9.991815e-01	9.991773e-01	9.991748e-01	9.991724e-01	9.991679e-01	9.991619e-01	9.991553e-01	9.991492e-01	9.991450e-01	9.991418e-01	9.991384e-01	9.991335e-01	9.991260e-01	9.991168e-01	9.991085e-01	9.991013e-01	9.991073e-01	9.991146e-01	9.991182e-01	9.991181e-01	9.991107e-01	9.990932e-01	9.990758e-01	9.990582e-01	9.990493e-01	9.990413e-01	9.990357e-01	9.990304e-01	9.990242e-01	9.990155e-01	9.990035e-01	9.989885e-01	9.989720e-01	9.989548e-01	9.989385e-01	9.989233e-01	9.989091e-01	9.988954e-01	9.988812e-01	9.988659e-01	9.988492e-01	9.988303e-01	9.988096e-01	9.987871e-01	9.987626e-01	9.987361e-01	9.987072e-01	9.986762e-01	9.986428e-01	9.986071e-01	9.985687e-01	9.985267e-01	9.984799e-01	9.984267e-01	9.983675e-01	9.983071e-01	9.982490e-01	9.981904e-01	9.981433e-01	9.981814e-01	9.985268e-01	9.997932e-01	1.003000e+00	1.008311e+00	1.013743e+00	1.017130e+00	1.018273e+00	1.018256e+00	1.017689e+00	1.015789e+00	1.012264e+00	1.007502e+00	1.001994e+00	9.962273e-01	9.906469e-01	9.857408e-01	9.820082e-01	9.797460e-01	9.788529e-01	9.786765e-01	9.789289e-01	9.800008e-01	9.824846e-01	9.863955e-01	9.913910e-01	9.969600e-01	1.002627e+00	1.007956e+00	1.012468e+00	1.015713e+00	1.017377e+00	1.017860e+00	1.017814e+00	1.016457e+00	1.012737e+00	1.006997e+00	1.001546e+00	9.982890e-01	9.970569e-01	9.967009e-01	9.991437e-01	9.991526e-01	9.991526e-01	9.991505e-01	9.991498e-01	9.991486e-01	9.991476e-01	9.991452e-01	9.991444e-01	9.991434e-01	9.991408e-01	9.991362e-01	9.991296e-01	9.991216e-01	9.991130e-01	9.991056e-01	9.990985e-01	9.990980e-01	9.990923e-01	9.990865e-01	9.990825e-01	9.990785e-01	9.990748e-01	9.990660e-01	9.990551e-01	9.990439e-01	9.990351e-01	9.990287e-01	9.990240e-01	9.990191e-01	9.990122e-01	9.990022e-01	9.989887e-01	9.989723e-01	9.989535e-01	9.989342e-01	9.989160e-01	9.988990e-01	9.988828e-01	9.988667e-01	9.988499e-01	9.988319e-01	9.988123e-01	9.987908e-01	9.987675e-01	9.987424e-01	9.987154e-01	9.986861e-01	9.986548e-01	9.986213e-01	9.985853e-01	9.985467e-01	9.985049e-01	9.984585e-01	9.984059e-01	9.983471e-01	9.982874e-01	9.982290e-01	9.981698e-01	9.981223e-01	9.981494e-01	9.984736e-01	9.997729e-01	1.003119e+00	1.008471e+00	1.013679e+00	1.016833e+00	1.017943e+00	1.017952e+00	1.017499e+00	1.015698e+00	1.012090e+00	1.007314e+00	1.001903e+00	9.962363e-01	9.907274e-01	9.858795e-01	9.821555e-01	9.799070e-01	9.790022e-01	9.787961e-01	9.790776e-01	9.801429e-01	9.826192e-01	9.865239e-01	9.914646e-01	9.969642e-01	1.002528e+00	1.007764e+00	1.012310e+00	1.015626e+00	1.017169e+00	1.017546e+00	1.017474e+00	1.016158e+00	1.012681e+00	1.007162e+00	1.001662e+00	9.982605e-01	9.969920e-01	9.966407e-01	9.991464e-01	9.991553e-01	9.991574e-01	9.991544e-01	9.991532e-01	9.991513e-01	9.991496e-01	9.991477e-01	9.991452e-01	9.991434e-01	9.991406e-01	9.991369e-01	9.991318e-01	9.991253e-01	9.991177e-01	9.991107e-01	9.991027e-01	9.991045e-01	9.991027e-01	9.991011e-01	9.990986e-01	9.990917e-01	9.990851e-01	9.990705e-01	9.990583e-01	9.990490e-01	9.990414e-01	9.990354e-01	9.990300e-01	9.990240e-01	9.990159e-01	9.990048e-01	9.989905e-01	9.989735e-01	9.989544e-01	9.989348e-01	9.989163e-01	9.988995e-01	9.988842e-01	9.988691e-01	9.988531e-01	9.988358e-01	9.988164e-01	9.987949e-01	9.987714e-01	9.987462e-01	9.987192e-01	9.986902e-01	9.986592e-01	9.986259e-01	9.985899e-01	9.985511e-01	9.985092e-01	9.984629e-01	9.984103e-01	9.983512e-01	9.982906e-01	9.982316e-01	9.981709e-01	9.981188e-01	9.981292e-01	9.984308e-01	9.997360e-01	1.003155e+00	1.008542e+00	1.013690e+00	1.016758e+00	1.017816e+00	1.017817e+00	1.017395e+00	1.015752e+00	1.012176e+00	1.007313e+00	1.001900e+00	9.962897e-01	9.908328e-01	9.860080e-01	9.822967e-01	9.800966e-01	9.792088e-01	9.789915e-01	9.792803e-01	9.803130e-01	9.827434e-01	9.866395e-01	9.915596e-01	9.970130e-01	1.002530e+00	1.007778e+00	1.012401e+00	1.015660e+00	1.017052e+00	1.017409e+00	1.017341e+00	1.016078e+00	1.012684e+00	1.007230e+00	1.001702e+00	9.982281e-01	9.969473e-01	9.966041e-01	9.991471e-01	9.991554e-01	9.991592e-01	9.991567e-01	9.991549e-01	9.991528e-01	9.991503e-01	9.991471e-01	9.991444e-01	9.991418e-01	9.991392e-01	9.991361e-01	9.991317e-01	9.991260e-01	9.991192e-01	9.991121e-01	9.991038e-01	9.991042e-01	9.991028e-01	9.991015e-01	9.990992e-01	9.990915e-01	9.990840e-01	9.990695e-01	9.990579e-01	9.990494e-01	9.990431e-01	9.990375e-01	9.990320e-01	9.990253e-01	9.990164e-01	9.990045e-01	9.989895e-01	9.989716e-01	9.989524e-01	9.989329e-01	9.989147e-01	9.988983e-01	9.988829e-01	9.988680e-01	9.988524e-01	9.988354e-01	9.988162e-01	9.987947e-01	9.987711e-01	9.987457e-01	9.987187e-01	9.986897e-01	9.986587e-01	9.986252e-01	9.985891e-01	9.985502e-01	9.985082e-01	9.984620e-01	9.984093e-01	9.983497e-01	9.982887e-01	9.982288e-01	9.981678e-01	9.981153e-01	9.981216e-01	9.984137e-01	9.997170e-01	1.003159e+00	1.008543e+00	1.013610e+00	1.016596e+00	1.017626e+00	1.017620e+00	1.017215e+00	1.015710e+00	1.012257e+00	1.007365e+00	1.001923e+00	9.963540e-01	9.909575e-01	9.861581e-01	9.824779e-01	9.803471e-01	9.794627e-01	9.792338e-01	9.795369e-01	9.805463e-01	9.829036e-01	9.867748e-01	9.916710e-01	9.970706e-01	1.002557e+00	1.007841e+00	1.012475e+00	1.015592e+00	1.016864e+00	1.017214e+00	1.017144e+00	1.015909e+00	1.012598e+00	1.007232e+00	1.001717e+00	9.982235e-01	9.969346e-01	9.965875e-01	9.991462e-01	9.991546e-01	9.991576e-01	9.991557e-01	9.991538e-01	9.991518e-01	9.991494e-01	9.991454e-01	9.991423e-01	9.991394e-01	9.991366e-01	9.991335e-01	9.991296e-01	9.991245e-01	9.991183e-01	9.991117e-01	9.991039e-01	9.991034e-01	9.991018e-01	9.991002e-01	9.990975e-01	9.990897e-01	9.990808e-01	9.990677e-01	9.990564e-01	9.990487e-01	9.990424e-01	9.990370e-01	9.990316e-01	9.990247e-01	9.990153e-01	9.990032e-01	9.989880e-01	9.989703e-01	9.989510e-01	9.989317e-01	9.989135e-01	9.988965e-01	9.988807e-01	9.988655e-01	9.988498e-01	9.988327e-01	9.988135e-01	9.987919e-01	9.987683e-01	9.987428e-01	9.987156e-01	9.986864e-01	9.986551e-01	9.986214e-01	9.985851e-01	9.985460e-01	9.985040e-01	9.984576e-01	9.984046e-01	9.983446e-01	9.982831e-01	9.982233e-01	9.981620e-01	9.981092e-01	9.981174e-01	9.984150e-01	9.997219e-01	1.003140e+00	1.008464e+00	1.013439e+00	1.016361e+00	1.017372e+00	1.017366e+00	1.016986e+00	1.015610e+00	1.012324e+00	1.007468e+00	1.001990e+00	9.964297e-01	9.910767e-01	9.863092e-01	9.826831e-01	9.806039e-01	9.797099e-01	9.794703e-01	9.797876e-01	9.808000e-01	9.830924e-01	9.869135e-01	9.917785e-01	9.971380e-01	1.002625e+00	1.007949e+00	1.012531e+00	1.015467e+00	1.016621e+00	1.016958e+00	1.016880e+00	1.015660e+00	1.012415e+00	1.007147e+00	1.001714e+00	9.982488e-01	9.969448e-01	9.965849e-01	9.991458e-01	9.991525e-01	9.991542e-01	9.991530e-01	9.991513e-01	9.991494e-01	9.991472e-01	9.991436e-01	9.991402e-01	9.991373e-01	9.991343e-01	9.991312e-01	9.991274e-01	9.991226e-01	9.991168e-01	9.991106e-01	9.991033e-01	9.991017e-01	9.991000e-01	9.990979e-01	9.990943e-01	9.990862e-01	9.990764e-01	9.990641e-01	9.990529e-01	9.990458e-01	9.990393e-01	9.990340e-01	9.990286e-01	9.990218e-01	9.990128e-01	9.990006e-01	9.989856e-01	9.989679e-01	9.989487e-01	9.989295e-01	9.989111e-01	9.988939e-01	9.988779e-01	9.988624e-01	9.988465e-01	9.988293e-01	9.988101e-01	9.987888e-01	9.987654e-01	9.987400e-01	9.987126e-01	9.986832e-01	9.986516e-01	9.986174e-01	9.985808e-01	9.985416e-01	9.984993e-01	9.984526e-01	9.983991e-01	9.983386e-01	9.982769e-01	9.982170e-01	9.981550e-01	9.981020e-01	9.981164e-01	9.984315e-01	9.997531e-01	1.003122e+00	1.008316e+00	1.013185e+00	1.016060e+00	1.017062e+00	1.017062e+00	1.016698e+00	1.015453e+00	1.012366e+00	1.007609e+00	1.002116e+00	9.965371e-01	9.912065e-01	9.864882e-01	9.829407e-01	9.809005e-01	9.799763e-01	9.797259e-01	9.800615e-01	9.810971e-01	9.833379e-01	9.870788e-01	9.918953e-01	9.972342e-01	1.002750e+00	1.008088e+00	1.012555e+00	1.015292e+00	1.016326e+00	1.016651e+00	1.016561e+00	1.015343e+00	1.012141e+00	1.006998e+00	1.001715e+00	9.983046e-01	9.969752e-01	9.965936e-01	9.991415e-01	9.991496e-01	9.991492e-01	9.991490e-01	9.991474e-01	9.991454e-01	9.991432e-01	9.991407e-01	9.991377e-01	9.991354e-01	9.991328e-01	9.991299e-01	9.991264e-01	9.991219e-01	9.991162e-01	9.991101e-01	9.991045e-01	9.991003e-01	9.991002e-01	9.990964e-01	9.990918e-01	9.990837e-01	9.990722e-01	9.990608e-01	9.990503e-01	9.990428e-01	9.990363e-01	9.990307e-01	9.990251e-01	9.990185e-01	9.990095e-01	9.989974e-01	9.989819e-01	9.989642e-01	9.989450e-01	9.989259e-01	9.989076e-01	9.988904e-01	9.988743e-01	9.988585e-01	9.988422e-01	9.988247e-01	9.988056e-01	9.987845e-01	9.987613e-01	9.987361e-01	9.987087e-01	9.986791e-01	9.986473e-01	9.986130e-01	9.985762e-01	9.985369e-01	9.984947e-01	9.984478e-01	9.983938e-01	9.983332e-01	9.982717e-01	9.982103e-01	9.981476e-01	9.980971e-01	9.981211e-01	9.984609e-01	9.998048e-01	1.003108e+00	1.008130e+00	1.012863e+00	1.015703e+00	1.016715e+00	1.016727e+00	1.016372e+00	1.015240e+00	1.012372e+00	1.007774e+00	1.002295e+00	9.966810e-01	9.913575e-01	9.867214e-01	9.832817e-01	9.812694e-01	9.802967e-01	9.800284e-01	9.803875e-01	9.814704e-01	9.836646e-01	9.872924e-01	9.920318e-01	9.973703e-01	1.002924e+00	1.008239e+00	1.012537e+00	1.015061e+00	1.015998e+00	1.016312e+00	1.016203e+00	1.014966e+00	1.011800e+00	1.006811e+00	1.001722e+00	9.983812e-01	9.970233e-01	9.966133e-01	9.991377e-01	9.991477e-01	9.991452e-01	9.991453e-01	9.991438e-01	9.991416e-01	9.991393e-01	9.991371e-01	9.991348e-01	9.991331e-01	9.991313e-01	9.991288e-01	9.991252e-01	9.991208e-01	9.991152e-01	9.991092e-01	9.991039e-01	9.991002e-01	9.990975e-01	9.990954e-01	9.990896e-01	9.990799e-01	9.990693e-01	9.990572e-01	9.990491e-01	9.990409e-01	9.990343e-01	9.990284e-01	9.990226e-01	9.990158e-01	9.990065e-01	9.989940e-01	9.989785e-01	9.989606e-01	9.989412e-01	9.989221e-01	9.989039e-01	9.988868e-01	9.988705e-01	9.988544e-01	9.988378e-01	9.988200e-01	9.988008e-01	9.987796e-01	9.987564e-01	9.987310e-01	9.987034e-01	9.986736e-01	9.986414e-01	9.986069e-01	9.985701e-01	9.985308e-01	9.984883e-01	9.984413e-01	9.983869e-01	9.983267e-01	9.982652e-01	9.982022e-01	9.981396e-01	9.980938e-01	9.981312e-01	9.985026e-01	9.998721e-01	1.003095e+00	1.007913e+00	1.012487e+00	1.015295e+00	1.016330e+00	1.016360e+00	1.016013e+00	1.014980e+00	1.012336e+00	1.007932e+00	1.002504e+00	9.968569e-01	9.915447e-01	9.870223e-01	9.837126e-01	9.817203e-01	9.806868e-01	9.803945e-01	9.807841e-01	9.819246e-01	9.840768e-01	9.875680e-01	9.922036e-01	9.975414e-01	1.003126e+00	1.008377e+00	1.012474e+00	1.014787e+00	1.015636e+00	1.015942e+00	1.015804e+00	1.014534e+00	1.011403e+00	1.006595e+00	1.001730e+00	9.984733e-01	9.970880e-01	9.966448e-01	9.991369e-01	9.991458e-01	9.991419e-01	9.991423e-01	9.991403e-01	9.991378e-01	9.991353e-01	9.991337e-01	9.991322e-01	9.991306e-01	9.991293e-01	9.991275e-01	9.991244e-01	9.991191e-01	9.991132e-01	9.991071e-01	9.991019e-01	9.990986e-01	9.990954e-01	9.990916e-01	9.990858e-01	9.990766e-01	9.990658e-01	9.990576e-01	9.990474e-01	9.990402e-01	9.990335e-01	9.990273e-01	9.990211e-01	9.990136e-01	9.990037e-01	9.989906e-01	9.989746e-01	9.989565e-01	9.989372e-01	9.989182e-01	9.989000e-01	9.988827e-01	9.988662e-01	9.988498e-01	9.988330e-01	9.988152e-01	9.987959e-01	9.987746e-01	9.987512e-01	9.987256e-01	9.986976e-01	9.986674e-01	9.986349e-01	9.986003e-01	9.985634e-01	9.985239e-01	9.984810e-01	9.984331e-01	9.983781e-01	9.983178e-01	9.982562e-01	9.981922e-01	9.981298e-01	9.980896e-01	9.981454e-01	9.985554e-01	9.999513e-01	1.003080e+00	1.007668e+00	1.012062e+00	1.014835e+00	1.015901e+00	1.015956e+00	1.015615e+00	1.014681e+00	1.012252e+00	1.008060e+00	1.002714e+00	9.970594e-01	9.917847e-01	9.873991e-01	9.842283e-01	9.822416e-01	9.811403e-01	9.808212e-01	9.812432e-01	9.824479e-01	9.845702e-01	9.879143e-01	9.924261e-01	9.977398e-01	1.003327e+00	1.008480e+00	1.012362e+00	1.014467e+00	1.015236e+00	1.015533e+00	1.015360e+00	1.014046e+00	1.010958e+00	1.006351e+00	1.001733e+00	9.985769e-01	9.971668e-01	9.966895e-01	9.991342e-01	9.991439e-01	9.991382e-01	9.991390e-01	9.991366e-01	9.991338e-01	9.991314e-01	9.991300e-01	9.991296e-01	9.991285e-01	9.991269e-01	9.991251e-01	9.991218e-01	9.991170e-01	9.991104e-01	9.991039e-01	9.990986e-01	9.990950e-01	9.990918e-01	9.990866e-01	9.990800e-01	9.990719e-01	9.990639e-01	9.990540e-01	9.990460e-01	9.990392e-01	9.990327e-01	9.990264e-01	9.990196e-01	9.990112e-01	9.990003e-01	9.989865e-01	9.989702e-01	9.989524e-01	9.989333e-01	9.989144e-01	9.988960e-01	9.988783e-01	9.988613e-01	9.988446e-01	9.988276e-01	9.988098e-01	9.987904e-01	9.987690e-01	9.987454e-01	9.987195e-01	9.986912e-01	9.986607e-01	9.986281e-01	9.985934e-01	9.985566e-01	9.985169e-01	9.984734e-01	9.984245e-01	9.983684e-01	9.983075e-01	9.982454e-01	9.981808e-01	9.981182e-01	9.980843e-01	9.981626e-01	9.986178e-01	1.000041e+00	1.003063e+00	1.007400e+00	1.011594e+00	1.014322e+00	1.015425e+00	1.015509e+00	1.015175e+00	1.014333e+00	1.012121e+00	1.008142e+00	1.002905e+00	9.972834e-01	9.920900e-01	9.878656e-01	9.848289e-01	9.828252e-01	9.816513e-01	9.813029e-01	9.817575e-01	9.830333e-01	9.851476e-01	9.883443e-01	9.927080e-01	9.979565e-01	1.003508e+00	1.008535e+00	1.012192e+00	1.014097e+00	1.014794e+00	1.015080e+00	1.014867e+00	1.013508e+00	1.010471e+00	1.006086e+00	1.001733e+00	9.986890e-01	9.972595e-01	9.967477e-01	9.991308e-01	9.991409e-01	9.991339e-01	9.991354e-01	9.991327e-01	9.991298e-01	9.991275e-01	9.991265e-01	9.991264e-01	9.991268e-01	9.991247e-01	9.991225e-01	9.991191e-01	9.991140e-01	9.991079e-01	9.991015e-01	9.990962e-01	9.990922e-01	9.990877e-01	9.990826e-01	9.990760e-01	9.990682e-01	9.990603e-01	9.990523e-01	9.990449e-01	9.990384e-01	9.990317e-01	9.990249e-01	9.990175e-01	9.990072e-01	9.989955e-01	9.989812e-01	9.989649e-01	9.989476e-01	9.989290e-01	9.989105e-01	9.988920e-01	9.988739e-01	9.988562e-01	9.988389e-01	9.988216e-01	9.988035e-01	9.987840e-01	9.987625e-01	9.987387e-01	9.987125e-01	9.986840e-01	9.986533e-01	9.986206e-01	9.985860e-01	9.985492e-01	9.985093e-01	9.984654e-01	9.984154e-01	9.983580e-01	9.982962e-01	9.982334e-01	9.981680e-01	9.981060e-01	9.980792e-01	9.981830e-01	9.986890e-01	1.000139e+00	1.003043e+00	1.007116e+00	1.011091e+00	1.013763e+00	1.014903e+00	1.015018e+00	1.014687e+00	1.013924e+00	1.011920e+00	1.008168e+00	1.003067e+00	9.975277e-01	9.924707e-01	9.884333e-01	9.855136e-01	9.834723e-01	9.822270e-01	9.818425e-01	9.823350e-01	9.836806e-01	9.858114e-01	9.888703e-01	9.930559e-01	9.981869e-01	1.003659e+00	1.008528e+00	1.011951e+00	1.013667e+00	1.014309e+00	1.014587e+00	1.014326e+00	1.012924e+00	1.009954e+00	1.005807e+00	1.001730e+00	9.988075e-01	9.973631e-01	9.968186e-01	9.991262e-01	9.991364e-01	9.991286e-01	9.991310e-01	9.991285e-01	9.991258e-01	9.991237e-01	9.991232e-01	9.991232e-01	9.991242e-01	9.991221e-01	9.991194e-01	9.991157e-01	9.991105e-01	9.991045e-01	9.990987e-01	9.990933e-01	9.990887e-01	9.990837e-01	9.990781e-01	9.990713e-01	9.990643e-01	9.990573e-01	9.990502e-01	9.990436e-01	9.990372e-01	9.990306e-01	9.990229e-01	9.990131e-01	9.990021e-01	9.989891e-01	9.989745e-01	9.989584e-01	9.989413e-01	9.989237e-01	9.989057e-01	9.988875e-01	9.988692e-01	9.988512e-01	9.988333e-01	9.988155e-01	9.987970e-01	9.987773e-01	9.987556e-01	9.987316e-01	9.987052e-01	9.986764e-01	9.986455e-01	9.986127e-01	9.985778e-01	9.985406e-01	9.985003e-01	9.984556e-01	9.984046e-01	9.983461e-01	9.982834e-01	9.982200e-01	9.981539e-01	9.980934e-01	9.980748e-01	9.982064e-01	9.987671e-01	1.000244e+00	1.003026e+00	1.006823e+00	1.010562e+00	1.013165e+00	1.014336e+00	1.014484e+00	1.014152e+00	1.013447e+00	1.011639e+00	1.008126e+00	1.003197e+00	9.977946e-01	9.929347e-01	9.891026e-01	9.862736e-01	9.841932e-01	9.828770e-01	9.824566e-01	9.829864e-01	9.843955e-01	9.865552e-01	9.894971e-01	9.934761e-01	9.984302e-01	1.003768e+00	1.008453e+00	1.011628e+00	1.013176e+00	1.013779e+00	1.014048e+00	1.013741e+00	1.012301e+00	1.009413e+00	1.005521e+00	1.001726e+00	9.989301e-01	9.974740e-01	9.968989e-01	9.991211e-01	9.991309e-01	9.991228e-01	9.991262e-01	9.991241e-01	9.991220e-01	9.991203e-01	9.991202e-01	9.991202e-01	9.991203e-01	9.991188e-01	9.991154e-01	9.991112e-01	9.991062e-01	9.991009e-01	9.990957e-01	9.990904e-01	9.990852e-01	9.990792e-01	9.990726e-01	9.990656e-01	9.990599e-01	9.990544e-01	9.990488e-01	9.990426e-01	9.990368e-01	9.990286e-01	9.990189e-01	9.990079e-01	9.989952e-01	9.989815e-01	9.989664e-01	9.989503e-01	9.989340e-01	9.989171e-01	9.988998e-01	9.988820e-01	9.988639e-01	9.988457e-01	9.988275e-01	9.988093e-01	9.987905e-01	9.987706e-01	9.987488e-01	9.987248e-01	9.986982e-01	9.986692e-01	9.986380e-01	9.986046e-01	9.985690e-01	9.985310e-01	9.984896e-01	9.984439e-01	9.983917e-01	9.983318e-01	9.982683e-01	9.982047e-01	9.981383e-01	9.980796e-01	9.980705e-01	9.982322e-01	9.988496e-01	1.000352e+00	1.003012e+00	1.006530e+00	1.010017e+00	1.012532e+00	1.013727e+00	1.013907e+00	1.013572e+00	1.012900e+00	1.011263e+00	1.008002e+00	1.003282e+00	9.980905e-01	9.934899e-01	9.898665e-01	9.871017e-01	9.849869e-01	9.836159e-01	9.831671e-01	9.837219e-01	9.851811e-01	9.873673e-01	9.902220e-01	9.939789e-01	9.986882e-01	1.003824e+00	1.008284e+00	1.011215e+00	1.012619e+00	1.013206e+00	1.013467e+00	1.013111e+00	1.011644e+00	1.008858e+00	1.005236e+00	1.001724e+00	9.990543e-01	9.975877e-01	9.969853e-01	9.991162e-01	9.991255e-01	9.991171e-01	9.991213e-01	9.991197e-01	9.991186e-01	9.991175e-01	9.991174e-01	9.991172e-01	9.991159e-01	9.991138e-01	9.991100e-01	9.991058e-01	9.991013e-01	9.990964e-01	9.990919e-01	9.990875e-01	9.990813e-01	9.990745e-01	9.990672e-01	9.990600e-01	9.990553e-01	9.990514e-01	9.990465e-01	9.990417e-01	9.990339e-01	9.990246e-01	9.990138e-01	9.990024e-01	9.989884e-01	9.989734e-01	9.989579e-01	9.989421e-01	9.989262e-01	9.989098e-01	9.988930e-01	9.988755e-01	9.988576e-01	9.988394e-01	9.988210e-01	9.988026e-01	9.987836e-01	9.987636e-01	9.987420e-01	9.987180e-01	9.986914e-01	9.986623e-01	9.986306e-01	9.985965e-01	9.985599e-01	9.985206e-01	9.984779e-01	9.984308e-01	9.983770e-01	9.983156e-01	9.982512e-01	9.981875e-01	9.981215e-01	9.980641e-01	9.980653e-01	9.982593e-01	9.989344e-01	1.000462e+00	1.003001e+00	1.006245e+00	1.009467e+00	1.011870e+00	1.013074e+00	1.013284e+00	1.012945e+00	1.012282e+00	1.010781e+00	1.007766e+00	1.003313e+00	9.984305e-01	9.941435e-01	9.907151e-01	9.879883e-01	9.858530e-01	9.844554e-01	9.839931e-01	9.845540e-01	9.860347e-01	9.882382e-01	9.910350e-01	9.945758e-01	9.989713e-01	1.003817e+00	1.008006e+00	1.010703e+00	1.011995e+00	1.012585e+00	1.012840e+00	1.012441e+00	1.010961e+00	1.008303e+00	1.004961e+00	1.001724e+00	9.991770e-01	9.977000e-01	9.970734e-01	9.991127e-01	9.991210e-01	9.991121e-01	9.991161e-01	9.991153e-01	9.991153e-01	9.991150e-01	9.991148e-01	9.991136e-01	9.991110e-01	9.991072e-01	9.991035e-01	9.990996e-01	9.990958e-01	9.990918e-01	9.990863e-01	9.990825e-01	9.990768e-01	9.990691