# vtk DataFile Version 3.0
vtk output
ASCII
DATASET STRUCTURED_GRID
DIMENSIONS 101 101 1
POINTS 10201 double
0.000000e+00	0.000000e+00	0.0	1.000000e-02	0.000000e+00	0.0	2.000000e-02	0.000000e+00	0.0	3.000000e-02	0.000000e+00	0.0	4.000000e-02	0.000000e+00	0.0	5.000000e-02	0.000000e+00	0.0	6.000000e-02	0.000000e+00	0.0	7.000000e-02	0.000000e+00	0.0	8.000000e-02	0.000000e+00	0.0	9.000000e-02	0.000000e+00	0.0	1.000000e-01	0.000000e+00	0.0	1.100000e-01	0.000000e+00	0.0	1.200000e-01	0.000000e+00	0.0	1.300000e-01	0.000000e+00	0.0	1.400000e-01	0.000000e+00	0.0	1.500000e-01	0.000000e+00	0.0	1.600000e-01	0.000000e+00	0.0	1.700000e-01	0.000000e+00	0.0	1.800000e-01	0.000000e+00	0.0	1.900000e-01	0.000000e+00	0.0	2.000000e-01	0.000000e+00	0.0	2.100000e-01	0.000000e+00	0.0	2.200000e-01	0.000000e+00	0.0	2.300000e-01	0.000000e+00	0.0	2.400000e-01	0.000000e+00	0.0	2.500000e-01	0.000000e+00	0.0	2.600000e-01	0.000000e+00	0.0	2.700000e-01	0.000000e+00	0.0	2.800000e-01	0.000000e+00	0.0	2.900000e-01	0.000000e+00	0.0	3.000000e-01	0.000000e+00	0.0	3.100000e-01	0.000000e+00	0.0	3.200000e-01	0.000000e+00	0.0	3.300000e-01	0.000000e+00	0.0	3.400000e-01	0.000000e+00	0.0	3.500000e-01	0.000000e+00	0.0	3.600000e-01	0.000000e+00	0.0	3.700000e-01	0.000000e+00	0.0	3.800000e-01	0.000000e+00	0.0	3.900000e-01	0.000000e+00	0.0	4.000000e-01	0.000000e+00	0.0	4.100000e-01	0.000000e+00	0.0	4.200000e-01	0.000000e+00	0.0	4.300000e-01	0.000000e+00	0.0	4.400000e-01	0.000000e+00	0.0	4.500000e-01	0.000000e+00	0.0	4.600000e-01	0.000000e+00	0.0	4.700000e-01	0.000000e+00	0.0	4.800000e-01	0.000000e+00	0.0	4.900000e-01	0.000000e+00	0.0	5.000000e-01	0.000000e+00	0.0	5.100000e-01	0.000000e+00	0.0	5.200000e-01	0.000000e+00	0.0	5.300000e-01	0.000000e+00	0.0	5.400000e-01	0.000000e+00	0.0	5.500000e-01	0.000000e+00	0.0	5.600000e-01	0.000000e+00	0.0	5.700000e-01	0.000000e+00	0.0	5.800000e-01	0.000000e+00	0.0	5.900000e-01	0.000000e+00	0.0	6.000000e-01	0.000000e+00	0.0	6.100000e-01	0.000000e+00	0.0	6.200000e-01	0.000000e+00	0.0	6.300000e-01	0.000000e+00	0.0	6.400000e-01	0.000000e+00	0.0	6.500000e-01	0.000000e+00	0.0	6.600000e-01	0.000000e+00	0.0	6.700000e-01	0.000000e+00	0.0	6.800000e-01	0.000000e+00	0.0	6.900000e-01	0.000000e+00	0.0	7.000000e-01	0.000000e+00	0.0	7.100000e-01	0.000000e+00	0.0	7.200000e-01	0.000000e+00	0.0	7.300000e-01	0.000000e+00	0.0	7.400000e-01	0.000000e+00	0.0	7.500000e-01	0.000000e+00	0.0	7.600000e-01	0.000000e+00	0.0	7.700000e-01	0.000000e+00	0.0	7.800000e-01	0.000000e+00	0.0	7.900000e-01	0.000000e+00	0.0	8.000000e-01	0.000000e+00	0.0	8.100000e-01	0.000000e+00	0.0	8.200000e-01	0.000000e+00	0.0	8.300000e-01	0.000000e+00	0.0	8.400000e-01	0.000000e+00	0.0	8.500000e-01	0.000000e+00	0.0	8.600000e-01	0.000000e+00	0.0	8.700000e-01	0.000000e+00	0.0	8.800000e-01	0.000000e+00	0.0	8.900000e-01	0.000000e+00	0.0	9.000000e-01	0.000000e+00	0.0	9.100000e-01	0.000000e+00	0.0	9.200000e-01	0.000000e+00	0.0	9.300000e-01	0.000000e+00	0.0	9.400000e-01	0.000000e+00	0.0	9.500000e-01	0.000000e+00	0.0	9.600000e-01	0.000000e+00	0.0	9.700000e-01	0.000000e+00	0.0	9.800000e-01	0.000000e+00	0.0	9.900000e-01	0.000000e+00	0.0	1.000000e+00	0.000000e+00	0.0	0.000000e+00	1.000000e-02	0.0	1.000000e-02	1.000000e-02	0.0	2.000000e-02	1.000000e-02	0.0	3.000000e-02	1.000000e-02	0.0	4.000000e-02	1.000000e-02	0.0	5.000000e-02	1.000000e-02	0.0	6.000000e-02	1.000000e-02	0.0	7.000000e-02	1.000000e-02	0.0	8.000000e-02	1.000000e-02	0.0	9.000000e-02	1.000000e-02	0.0	1.000000e-01	1.000000e-02	0.0	1.100000e-01	1.000000e-02	0.0	1.200000e-01	1.000000e-02	0.0	1.300000e-01	1.000000e-02	0.0	1.400000e-01	1.000000e-02	0.0	1.500000e-01	1.000000e-02	0.0	1.600000e-01	1.000000e-02	0.0	1.700000e-01	1.000000e-02	0.0	1.800000e-01	1.000000e-02	0.0	1.900000e-01	1.000000e-02	0.0	2.000000e-01	1.000000e-02	0.0	2.100000e-01	1.000000e-02	0.0	2.200000e-01	1.000000e-02	0.0	2.300000e-01	1.000000e-02	0.0	2.400000e-01	1.000000e-02	0.0	2.500000e-01	1.000000e-02	0.0	2.600000e-01	1.000000e-02	0.0	2.700000e-01	1.000000e-02	0.0	2.800000e-01	1.000000e-02	0.0	2.900000e-01	1.000000e-02	0.0	3.000000e-01	1.000000e-02	0.0	3.100000e-01	1.000000e-02	0.0	3.200000e-01	1.000000e-02	0.0	3.300000e-01	1.000000e-02	0.0	3.400000e-01	1.000000e-02	0.0	3.500000e-01	1.000000e-02	0.0	3.600000e-01	1.000000e-02	0.0	3.700000e-01	1.000000e-02	0.0	3.800000e-01	1.000000e-02	0.0	3.900000e-01	1.000000e-02	0.0	4.000000e-01	1.000000e-02	0.0	4.100000e-01	1.000000e-02	0.0	4.200000e-01	1.000000e-02	0.0	4.300000e-01	1.000000e-02	0.0	4.400000e-01	1.000000e-02	0.0	4.500000e-01	1.000000e-02	0.0	4.600000e-01	1.000000e-02	0.0	4.700000e-01	1.000000e-02	0.0	4.800000e-01	1.000000e-02	0.0	4.900000e-01	1.000000e-02	0.0	5.000000e-01	1.000000e-02	0.0	5.100000e-01	1.000000e-02	0.0	5.200000e-01	1.000000e-02	0.0	5.300000e-01	1.000000e-02	0.0	5.400000e-01	1.000000e-02	0.0	5.500000e-01	1.000000e-02	0.0	5.600000e-01	1.000000e-02	0.0	5.700000e-01	1.000000e-02	0.0	5.800000e-01	1.000000e-02	0.0	5.900000e-01	1.000000e-02	0.0	6.000000e-01	1.000000e-02	0.0	6.100000e-01	1.000000e-02	0.0	6.200000e-01	1.000000e-02	0.0	6.300000e-01	1.000000e-02	0.0	6.400000e-01	1.000000e-02	0.0	6.500000e-01	1.000000e-02	0.0	6.600000e-01	1.000000e-02	0.0	6.700000e-01	1.000000e-02	0.0	6.800000e-01	1.000000e-02	0.0	6.900000e-01	1.000000e-02	0.0	7.000000e-01	1.000000e-02	0.0	7.100000e-01	1.000000e-02	0.0	7.200000e-01	1.000000e-02	0.0	7.300000e-01	1.000000e-02	0.0	7.400000e-01	1.000000e-02	0.0	7.500000e-01	1.000000e-02	0.0	7.600000e-01	1.000000e-02	0.0	7.700000e-01	1.000000e-02	0.0	7.800000e-01	1.000000e-02	0.0	7.900000e-01	1.000000e-02	0.0	8.000000e-01	1.000000e-02	0.0	8.100000e-01	1.000000e-02	0.0	8.200000e-01	1.000000e-02	0.0	8.300000e-01	1.000000e-02	0.0	8.400000e-01	1.000000e-02	0.0	8.500000e-01	1.000000e-02	0.0	8.600000e-01	1.000000e-02	0.0	8.700000e-01	1.000000e-02	0.0	8.800000e-01	1.000000e-02	0.0	8.900000e-01	1.000000e-02	0.0	9.000000e-01	1.000000e-02	0.0	9.100000e-01	1.000000e-02	0.0	9.200000e-01	1.000000e-02	0.0	9.300000e-01	1.000000e-02	0.0	9.400000e-01	1.000000e-02	0.0	9.500000e-01	1.000000e-02	0.0	9.600000e-01	1.000000e-02	0.0	9.700000e-01	1.000000e-02	0.0	9.800000e-01	1.000000e-02	0.0	9.900000e-01	1.000000e-02	0.0	1.000000e+00	1.000000e-02	0.0	0.000000e+00	2.000000e-02	0.0	1.000000e-02	2.000000e-02	0.0	2.000000e-02	2.000000e-02	0.0	3.000000e-02	2.000000e-02	0.0	4.000000e-02	2.000000e-02	0.0	5.000000e-02	2.000000e-02	0.0	6.000000e-02	2.000000e-02	0.0	7.000000e-02	2.000000e-02	0.0	8.000000e-02	2.000000e-02	0.0	9.000000e-02	2.000000e-02	0.0	1.000000e-01	2.000000e-02	0.0	1.100000e-01	2.000000e-02	0.0	1.200000e-01	2.000000e-02	0.0	1.300000e-01	2.000000e-02	0.0	1.400000e-01	2.000000e-02	0.0	1.500000e-01	2.000000e-02	0.0	1.600000e-01	2.000000e-02	0.0	1.700000e-01	2.000000e-02	0.0	1.800000e-01	2.000000e-02	0.0	1.900000e-01	2.000000e-02	0.0	2.000000e-01	2.000000e-02	0.0	2.100000e-01	2.000000e-02	0.0	2.200000e-01	2.000000e-02	0.0	2.300000e-01	2.000000e-02	0.0	2.400000e-01	2.000000e-02	0.0	2.500000e-01	2.000000e-02	0.0	2.600000e-01	2.000000e-02	0.0	2.700000e-01	2.000000e-02	0.0	2.800000e-01	2.000000e-02	0.0	2.900000e-01	2.000000e-02	0.0	3.000000e-01	2.000000e-02	0.0	3.100000e-01	2.000000e-02	0.0	3.200000e-01	2.000000e-02	0.0	3.300000e-01	2.000000e-02	0.0	3.400000e-01	2.000000e-02	0.0	3.500000e-01	2.000000e-02	0.0	3.600000e-01	2.000000e-02	0.0	3.700000e-01	2.000000e-02	0.0	3.800000e-01	2.000000e-02	0.0	3.900000e-01	2.000000e-02	0.0	4.000000e-01	2.000000e-02	0.0	4.100000e-01	2.000000e-02	0.0	4.200000e-01	2.000000e-02	0.0	4.300000e-01	2.000000e-02	0.0	4.400000e-01	2.000000e-02	0.0	4.500000e-01	2.000000e-02	0.0	4.600000e-01	2.000000e-02	0.0	4.700000e-01	2.000000e-02	0.0	4.800000e-01	2.000000e-02	0.0	4.900000e-01	2.000000e-02	0.0	5.000000e-01	2.000000e-02	0.0	5.100000e-01	2.000000e-02	0.0	5.200000e-01	2.000000e-02	0.0	5.300000e-01	2.000000e-02	0.0	5.400000e-01	2.000000e-02	0.0	5.500000e-01	2.000000e-02	0.0	5.600000e-01	2.000000e-02	0.0	5.700000e-01	2.000000e-02	0.0	5.800000e-01	2.000000e-02	0.0	5.900000e-01	2.000000e-02	0.0	6.000000e-01	2.000000e-02	0.0	6.100000e-01	2.000000e-02	0.0	6.200000e-01	2.000000e-02	0.0	6.300000e-01	2.000000e-02	0.0	6.400000e-01	2.000000e-02	0.0	6.500000e-01	2.000000e-02	0.0	6.600000e-01	2.000000e-02	0.0	6.700000e-01	2.000000e-02	0.0	6.800000e-01	2.000000e-02	0.0	6.900000e-01	2.000000e-02	0.0	7.000000e-01	2.000000e-02	0.0	7.100000e-01	2.000000e-02	0.0	7.200000e-01	2.000000e-02	0.0	7.300000e-01	2.000000e-02	0.0	7.400000e-01	2.000000e-02	0.0	7.500000e-01	2.000000e-02	0.0	7.600000e-01	2.000000e-02	0.0	7.700000e-01	2.000000e-02	0.0	7.800000e-01	2.000000e-02	0.0	7.900000e-01	2.000000e-02	0.0	8.000000e-01	2.000000e-02	0.0	8.100000e-01	2.000000e-02	0.0	8.200000e-01	2.000000e-02	0.0	8.300000e-01	2.000000e-02	0.0	8.400000e-01	2.000000e-02	0.0	8.500000e-01	2.000000e-02	0.0	8.600000e-01	2.000000e-02	0.0	8.700000e-01	2.000000e-02	0.0	8.800000e-01	2.000000e-02	0.0	8.900000e-01	2.000000e-02	0.0	9.000000e-01	2.000000e-02	0.0	9.100000e-01	2.000000e-02	0.0	9.200000e-01	2.000000e-02	0.0	9.300000e-01	2.000000e-02	0.0	9.400000e-01	2.000000e-02	0.0	9.500000e-01	2.000000e-02	0.0	9.600000e-01	2.000000e-02	0.0	9.700000e-01	2.000000e-02	0.0	9.800000e-01	2.000000e-02	0.0	9.900000e-01	2.000000e-02	0.0	1.000000e+00	2.000000e-02	0.0	0.000000e+00	3.000000e-02	0.0	1.000000e-02	3.000000e-02	0.0	2.000000e-02	3.000000e-02	0.0	3.000000e-02	3.000000e-02	0.0	4.000000e-02	3.000000e-02	0.0	5.000000e-02	3.000000e-02	0.0	6.000000e-02	3.000000e-02	0.0	7.000000e-02	3.000000e-02	0.0	8.000000e-02	3.000000e-02	0.0	9.000000e-02	3.000000e-02	0.0	1.000000e-01	3.000000e-02	0.0	1.100000e-01	3.000000e-02	0.0	1.200000e-01	3.000000e-02	0.0	1.300000e-01	3.000000e-02	0.0	1.400000e-01	3.000000e-02	0.0	1.500000e-01	3.000000e-02	0.0	1.600000e-01	3.000000e-02	0.0	1.700000e-01	3.000000e-02	0.0	1.800000e-01	3.000000e-02	0.0	1.900000e-01	3.000000e-02	0.0	2.000000e-01	3.000000e-02	0.0	2.100000e-01	3.000000e-02	0.0	2.200000e-01	3.000000e-02	0.0	2.300000e-01	3.000000e-02	0.0	2.400000e-01	3.000000e-02	0.0	2.500000e-01	3.000000e-02	0.0	2.600000e-01	3.000000
[...]
POINT_DATA 10201

SCALARS Height double 1
LOOKUP_TABLE default
9.993035e-01	9.993114e-01	9.993221e-01	9.993202e-01	9.993204e-01	9.993203e-01	9.993184e-01	9.993128e-01	9.993079e-01	9.993053e-01	9.993040e-01	9.993045e-01	9.993053e-01	9.993055e-01	9.993049e-01	9.993032e-01	9.993015e-01	9.993032e-01	9.993046e-01	9.993053e-01	9.993050e-01	9.992989e-01	9.992921e-01	9.992809e-01	9.992704e-01	9.992620e-01	9.992547e-01	9.992463e-01	9.992383e-01	9.992315e-01	9.992259e-01	9.992207e-01	9.992151e-01	9.992083e-01	9.992004e-01	9.991920e-01	9.991836e-01	9.991761e-01	9.991691e-01	9.991622e-01	9.991543e-01	9.991436e-01	9.991296e-01	9.991132e-01	9.990981e-01	9.990860e-01	9.990825e-01	9.991214e-01	9.992735e-01	9.997343e-01	1.001006e+00	1.003818e+00	1.008317e+00	1.013248e+00	1.016712e+00	1.018157e+00	1.018361e+00	1.018004e+00	1.016799e+00	1.014411e+00	1.010879e+00	1.006674e+00	1.002349e+00	9.983204e-01	9.948576e-01	9.921502e-01	9.903228e-01	9.893382e-01	9.889733e-01	9.888992e-01	9.889935e-01	9.893626e-01	9.900912e-01	9.911176e-01	9.922135e-01	9.931628e-01	9.938735e-01	9.943541e-01	9.946537e-01	9.948194e-01	9.948753e-01	9.948236e-01	9.946358e-01	9.942692e-01	9.936778e-01	9.928373e-01	9.917761e-01	9.906370e-01	9.897309e-01	9.894464e-01	9.902760e-01	9.928124e-01	9.973129e-01	1.002822e+00	1.007798e+00	1.011596e+00	1.014793e+00	1.018099e+00	1.021132e+00	1.023384e+00	1.023724e+00	9.993145e-01	9.993178e-01	9.993254e-01	9.993229e-01	9.993213e-01	9.993194e-01	9.993175e-01	9.993147e-01	9.993115e-01	9.993096e-01	9.993087e-01	9.993085e-01	9.993078e-01	9.993066e-01	9.993044e-01	9.993019e-01	9.992951e-01	9.992972e-01	9.992935e-01	9.992913e-01	9.992890e-01	9.992838e-01	9.992816e-01	9.992725e-01	9.992620e-01	9.992575e-01	9.992510e-01	9.992441e-01	9.992373e-01	9.992313e-01	9.992262e-01	9.992215e-01	9.992161e-01	9.992096e-01	9.992015e-01	9.991924e-01	9.991832e-01	9.991751e-01	9.991680e-01	9.991613e-01	9.991536e-01	9.991427e-01	9.991283e-01	9.991114e-01	9.990954e-01	9.990806e-01	9.990695e-01	9.990778e-01	9.991648e-01	9.995454e-01	1.000782e+00	1.003734e+00	1.008498e+00	1.013467e+00	1.016807e+00	1.018172e+00	1.018381e+00	1.018176e+00	1.017010e+00	1.014496e+00	1.010871e+00	1.006625e+00	1.002280e+00	9.982288e-01	9.947487e-01	9.920473e-01	9.902493e-01	9.893008e-01	9.889504e-01	9.888660e-01	9.889130e-01	9.892828e-01	9.900480e-01	9.910973e-01	9.922002e-01	9.931501e-01	9.938603e-01	9.943417e-01	9.946430e-01	9.948105e-01	9.948683e-01	9.948171e-01	9.946278e-01	9.942576e-01	9.936636e-01	9.928226e-01	9.917579e-01	9.905910e-01	9.895860e-01	9.891690e-01	9.899677e-01	9.926829e-01	9.974325e-01	1.003037e+00	1.007881e+00	1.011528e+00	1.014692e+00	1.018129e+00	1.021239e+00	1.023419e+00	1.023948e+00	9.993186e-01	9.993214e-01	9.993322e-01	9.993285e-01	9.993258e-01	9.993242e-01	9.993230e-01	9.993199e-01	9.993153e-01	9.993118e-01	9.993094e-01	9.993075e-01	9.993058e-01	9.993041e-01	9.993020e-01	9.993001e-01	9.992962e-01	9.992983e-01	9.992965e-01	9.992964e-01	9.992955e-01	9.992899e-01	9.992846e-01	9.992748e-01	9.992648e-01	9.992556e-01	9.992481e-01	9.992412e-01	9.992358e-01	9.992316e-01	9.992281e-01	9.992245e-01	9.992197e-01	9.992132e-01	9.992048e-01	9.991955e-01	9.991861e-01	9.991775e-01	9.991700e-01	9.991632e-01	9.991556e-01	9.991457e-01	9.991326e-01	9.991161e-01	9.990988e-01	9.990822e-01	9.990698e-01	9.990738e-01	9.991515e-01	9.995231e-01	1.000798e+00	1.003870e+00	1.008693e+00	1.013513e+00	1.016671e+00	1.017984e+00	1.018217e+00	1.018079e+00	1.017025e+00	1.014458e+00	1.010794e+00	1.006613e+00	1.002339e+00	9.983218e-01	9.948483e-01	9.921577e-01	9.903594e-01	9.893857e-01	9.890021e-01	9.889090e-01	9.889273e-01	9.892712e-01	9.900620e-01	9.911219e-01	9.922093e-01	9.931450e-01	9.938505e-01	9.943325e-01	9.946356e-01	9.948041e-01	9.948617e-01	9.948092e-01	9.946177e-01	9.942443e-01	9.936489e-01	9.928126e-01	9.917619e-01	9.906057e-01	9.895762e-01	9.891205e-01	9.899830e-01	9.928251e-01	9.976558e-01	1.003178e+00	1.007859e+00	1.011437e+00	1.014612e+00	1.018070e+00	1.021256e+00	1.023365e+00	1.023847e+00	9.993160e-01	9.993177e-01	9.993296e-01	9.993257e-01	9.993231e-01	9.993222e-01	9.993215e-01	9.993185e-01	9.993149e-01	9.993124e-01	9.993109e-01	9.993099e-01	9.993088e-01	9.993071e-01	9.993044e-01	9.993014e-01	9.992964e-01	9.992981e-01	9.992965e-01	9.992962e-01	9.992954e-01	9.992900e-01	9.992849e-01	9.992753e-01	9.992659e-01	9.992577e-01	9.992500e-01	9.992436e-01	9.992385e-01	9.992344e-01	9.992306e-01	9.992263e-01	9.992205e-01	9.992131e-01	9.992041e-01	9.991945e-01	9.991852e-01	9.991766e-01	9.991689e-01	9.991618e-01	9.991539e-01	9.991440e-01	9.991311e-01	9.991142e-01	9.990966e-01	9.990787e-01	9.990645e-01	9.990643e-01	9.991287e-01	9.994783e-01	1.000758e+00	1.003901e+00	1.008780e+00	1.013550e+00	1.016592e+00	1.017853e+00	1.018092e+00	1.017981e+00	1.017061e+00	1.014536e+00	1.010804e+00	1.006625e+00	1.002408e+00	9.984252e-01	9.949618e-01	9.922640e-01	9.904508e-01	9.894633e-01	9.890667e-01	9.889595e-01	9.889531e-01	9.892381e-01	9.900164e-01	9.910899e-01	9.921743e-01	9.931045e-01	9.938130e-01	9.943014e-01	9.946097e-01	9.947806e-01	9.948383e-01	9.947839e-01	9.945885e-01	9.942089e-01	9.936063e-01	9.927673e-01	9.917212e-01	9.905644e-01	9.895120e-01	9.890655e-01	9.899872e-01	9.928980e-01	9.977981e-01	1.003292e+00	1.007882e+00	1.011410e+00	1.014584e+00	1.018048e+00	1.021312e+00	1.023450e+00	1.023918e+00	9.993183e-01	9.993196e-01	9.993305e-01	9.993265e-01	9.993237e-01	9.993226e-01	9.993211e-01	9.993180e-01	9.993148e-01	9.993129e-01	9.993118e-01	9.993111e-01	9.993098e-01	9.993076e-01	9.993045e-01	9.993010e-01	9.992956e-01	9.992966e-01	9.992946e-01	9.992941e-01	9.992935e-01	9.992887e-01	9.992842e-01	9.992754e-01	9.992665e-01	9.992586e-01	9.992516e-01	9.992454e-01	9.992408e-01	9.992372e-01	9.992335e-01	9.992286e-01	9.992222e-01	9.992140e-01	9.992045e-01	9.991944e-01	9.991846e-01	9.991757e-01	9.991681e-01	9.991612e-01	9.991535e-01	9.991440e-01	9.991314e-01	9.991147e-01	9.990970e-01	9.990789e-01	9.990636e-01	9.990612e-01	9.991202e-01	9.994563e-01	1.000727e+00	1.003896e+00	1.008788e+00	1.013513e+00	1.016489e+00	1.017707e+00	1.017943e+00	1.017848e+00	1.017046e+00	1.014649e+00	1.010892e+00	1.006680e+00	1.002504e+00	9.985697e-01	9.951320e-01	9.924316e-01	9.905982e-01	9.895815e-01	9.891596e-01	9.890435e-01	9.890196e-01	9.892441e-01	9.899686e-01	9.910400e-01	9.921286e-01	9.930562e-01	9.937664e-01	9.942617e-01	9.945767e-01	9.947507e-01	9.948086e-01	9.947513e-01	9.945508e-01	9.941637e-01	9.935540e-01	9.927132e-01	9.916674e-01	9.905032e-01	9.894566e-01	9.890770e-01	9.900501e-01	9.929931e-01	9.979266e-01	1.003402e+00	1.007934e+00	1.011424e+00	1.014591e+00	1.018038e+00	1.021343e+00	1.023597e+00	1.024109e+00	9.993228e-01	9.993244e-01	9.993328e-01	9.993286e-01	9.993253e-01	9.993237e-01	9.993218e-01	9.993186e-01	9.993151e-01	9.993133e-01	9.993127e-01	9.993123e-01	9.993108e-01	9.993083e-01	9.993048e-01	9.993011e-01	9.992955e-01	9.992956e-01	9.992932e-01	9.992920e-01	9.992914e-01	9.992874e-01	9.992846e-01	9.992756e-01	9.992675e-01	9.992612e-01	9.992545e-01	9.992487e-01	9.992441e-01	9.992402e-01	9.992360e-01	9.992304e-01	9.992228e-01	9.992139e-01	9.992040e-01	9.991940e-01	9.991842e-01	9.991757e-01	9.991685e-01	9.991618e-01	9.991543e-01	9.991450e-01	9.991325e-01	9.991158e-01	9.990983e-01	9.990803e-01	9.990645e-01	9.990612e-01	9.991186e-01	9.994505e-01	1.000713e+00	1.003869e+00	1.008745e+00	1.013416e+00	1.016346e+00	1.017544e+00	1.017781e+00	1.017694e+00	1.016988e+00	1.014758e+00	1.011056e+00	1.006806e+00	1.002625e+00	9.987385e-01	9.953314e-01	9.926283e-01	9.907712e-01	9.897217e-01	9.892686e-01	9.891327e-01	9.890999e-01	9.892701e-01	9.899174e-01	9.909634e-01	9.920613e-01	9.929946e-01	9.937073e-01	9.942105e-01	9.945351e-01	9.947153e-01	9.947745e-01	9.947127e-01	9.945035e-01	9.941063e-01	9.934897e-01	9.926455e-01	9.915911e-01	9.904170e-01	9.894096e-01	9.891232e-01	9.901446e-01	9.930881e-01	9.980013e-01	1.003452e+00	1.007972e+00	1.011460e+00	1.014623e+00	1.018042e+00	1.021384e+00	1.023809e+00	1.024424e+00	9.993284e-01	9.993295e-01	9.993346e-01	9.993304e-01	9.993273e-01	9.993248e-01	9.993223e-01	9.993182e-01	9.993150e-01	9.993128e-01	9.993118e-01	9.993113e-01	9.993100e-01	9.993077e-01	9.993045e-01	9.993009e-01	9.992957e-01	9.992947e-01	9.992925e-01	9.992910e-01	9.992901e-01	9.992867e-01	9.992839e-01	9.992753e-01	9.992674e-01	9.992616e-01	9.992554e-01	9.992496e-01	9.992446e-01	9.992399e-01	9.992345e-01	9.992279e-01	9.992206e-01	9.992124e-01	9.992031e-01	9.991937e-01	9.991844e-01	9.991761e-01	9.991691e-01	9.991627e-01	9.991554e-01	9.991463e-01	9.991335e-01	9.991170e-01	9.990999e-01	9.990823e-01	9.990668e-01	9.990640e-01	9.991230e-01	9.994586e-01	1.000718e+00	1.003839e+00	1.008644e+00	1.013253e+00	1.016152e+00	1.017349e+00	1.017594e+00	1.017520e+00	1.016892e+00	1.014833e+00	1.011255e+00	1.007002e+00	1.002804e+00	9.989455e-01	9.955652e-01	9.928556e-01	9.909635e-01	9.898699e-01	9.893813e-01	9.892257e-01	9.891831e-01	9.893010e-01	9.898583e-01	9.908565e-01	9.919656e-01	9.929153e-01	9.936354e-01	9.941467e-01	9.944822e-01	9.946727e-01	9.947342e-01	9.946658e-01	9.944444e-01	9.940352e-01	9.934106e-01	9.925586e-01	9.914866e-01	9.903065e-01	9.893681e-01	9.891887e-01	9.902598e-01	9.931839e-01	9.980398e-01	1.003441e+00	1.007964e+00	1.011486e+00	1.014662e+00	1.018056e+00	1.021453e+00	1.024058e+00	1.024799e+00	9.993264e-01	9.993290e-01	9.993336e-01	9.993301e-01	9.993274e-01	9.993246e-01	9.993215e-01	9.993170e-01	9.993130e-01	9.993101e-01	9.993088e-01	9.993085e-01	9.993079e-01	9.993064e-01	9.993040e-01	9.993008e-01	9.992972e-01	9.992939e-01	9.992944e-01	9.992920e-01	9.992907e-01	9.992873e-01	9.992829e-01	9.992747e-01	9.992674e-01	9.992609e-01	9.992544e-01	9.992480e-01	9.992420e-01	9.992362e-01	9.992303e-01	9.992242e-01	9.992174e-01	9.992100e-01	9.992016e-01	9.991925e-01	9.991835e-01	9.991755e-01	9.991686e-01	9.991624e-01	9.991554e-01	9.991458e-01	9.991325e-01	9.991163e-01	9.990996e-01	9.990827e-01	9.990675e-01	9.990656e-01	9.991288e-01	9.994744e-01	1.000736e+00	1.003808e+00	1.008509e+00	1.013036e+00	1.015906e+00	1.017110e+00	1.017370e+00	1.017310e+00	1.016762e+00	1.014874e+00	1.011459e+00	1.007261e+00	1.003051e+00	9.991938e-01	9.958337e-01	9.931168e-01	9.911809e-01	9.900308e-01	9.894966e-01	9.893167e-01	9.892641e-01	9.893316e-01	9.897888e-01	9.907171e-01	9.918252e-01	9.928006e-01	9.935406e-01	9.940666e-01	9.944169e-01	9.946173e-01	9.946810e-01	9.946049e-01	9.943682e-01	9.939438e-01	9.933054e-01	9.924326e-01	9.913381e-01	9.901731e-01	9.893295e-01	9.892632e-01	9.903878e-01	9.932816e-01	9.980523e-01	1.003393e+00	1.007928e+00	1.011500e+00	1.014698e+00	1.018082e+00	1.021552e+00	1.024307e+00	1.025173e+00	9.993229e-01	9.993299e-01	9.993296e-01	9.993280e-01	9.993252e-01	9.993225e-01	9.993189e-01	9.993146e-01	9.993097e-01	9.993068e-01	9.993048e-01	9.993044e-01	9.993040e-01	9.993034e-01	9.993020e-01	9.992999e-01	9.992967e-01	9.992950e-01	9.992935e-01	9.992928e-01	9.992908e-01	9.992871e-01	9.992813e-01	9.992735e-01	9.992670e-01	9.992598e-01	9.992526e-01	9.992455e-01	9.992387e-01	9.992322e-01	9.992263e-01	9.992203e-01	9.992144e-01	9.992074e-01	9.991993e-01	9.991903e-01	9.991815e-01	9.991738e-01	9.991671e-01	9.991606e-01	9.991531e-01	9.991429e-01	9.991290e-01	9.991127e-01	9.990963e-01	9.990805e-01	9.990653e-01	9.990640e-01	9.991338e-01	9.994945e-01	1.000760e+00	1.003771e+00	1.008346e+00	1.012777e+00	1.015620e+00	1.016834e+00	1.017110e+00	1.017061e+00	1.016596e+00	1.014882e+00	1.011653e+00	1.007544e+00	1.003342e+00	9.994821e-01	9.961358e-01	9.934169e-01	9.914381e-01	9.902207e-01	9.896268e-01	9.894130e-01	9.893462e-01	9.893673e-01	9.897177e-01	9.905549e-01	9.916461e-01	9.926520e-01	9.934250e-01	9.939719e-01	9.943357e-01	9.945451e-01	9.946097e-01	9.945249e-01	9.942746e-01	9.938350e-01	9.931761e-01	9.922719e-01	9.911550e-01	9.900273e-01	9.892989e-01	9.893546e-01	9.905308e-01	9.933886e-01	9.980596e-01	1.003337e+00	1.007891e+00	1.011512e+00	1.014733e+00	1.018120e+00	1.021663e+00	1.024541e+00	1.025524e+00	9.993205e-01	9.993270e-01	9.993234e-01	9.993232e-01	9.993206e-01	9.993177e-01	9.993143e-01	9.993106e-01	9.993067e-01	9.993026e-01	9.993008e-01	9.992996e-01	9.992993e-01	9.992992e-01	9.992985e-01	9.992971e-01	9.992948e-01	9.992934e-01	9.992916e-01	9.992896e-01	9.992875e-01	9.992831e-01	9.992783e-01	9.992722e-01	9.992645e-01	9.992578e-01	9.992507e-01	9.992432e-01	9.992360e-01	9.992295e-01	9.992237e-01	9.992181e-01	9.992117e-01	9.992044e-01	9.991957e-01	9.991866e-01	9.991780e-01	9.991704e-01	9.991635e-01	9.991566e-01	9.991484e-01	9.991373e-01	9.991228e-01	9.991060e-01	9.990897e-01	9.990747e-01	9.990603e-01	9.990598e-01	9.991375e-01	9.995189e-01	1.000793e+00	1.003731e+00	1.008156e+00	1.012477e+00	1.015301e+00	1.016534e+00	1.016828e+00	1.016789e+00	1.016390e+00	1.014862e+00	1.011834e+00	1.007841e+00	1.003668e+00	9.998064e-01	9.964678e-01	9.937530e-01	9.917412e-01	9.904529e-01	9.897842e-01	9.895223e-01	9.894400e-01	9.894193e-01	9.896585e-01	9.903823e-01	9.914355e-01	9.924665e-01	9.932810e-01	9.938589e-01	9.942405e-01	9.944583e-01	9.945232e-01	9.944308e-01	9.941659e-01	9.937047e-01	9.930148e-01	9.920741e-01	9.909447e-01	9.898779e-01	9.892855e-01	9.894720e-01	9.906922e-01	9.935116e-01	9.980792e-01	1.003288e+00	1.007865e+00	1.011534e+00	1.014779e+00	1.018174e+00	1.021778e+00	1.024759e+00	1.025848e+00	9.993158e-01	9.993219e-01	9.993164e-01	9.993169e-01	9.993142e-01	9.993112e-01	9.993080e-01	9.993053e-01	9.993024e-01	9.992999e-01	9.992967e-01	9.992962e-01	9.992955e-01	9.992951e-01	9.992950e-01	9.992941e-01	9.992921e-01	9.992899e-01	9.992866e-01	9.992829e-01	9.992791e-01	9.992756e-01	9.992719e-01	9.992671e-01	9.992618e-01	9.992557e-01	9.992484e-01	9.992410e-01	9.992340e-01	9.992279e-01	9.992224e-01	9.992164e-01	9.992092e-01	9.992008e-01	9.991914e-01	9.991821e-01	9.991736e-01	9.991661e-01	9.991590e-01	9.991515e-01	9.991424e-01	9.991302e-01	9.991145e-01	9.990972e-01	9.990808e-01	9.990666e-01	9.990536e-01	9.990548e-01	9.991419e-01	9.995493e-01	1.000835e+00	1.003691e+00	1.007942e+00	1.012138e+00	1.014946e+00	1.016213e+00	1.016532e+00	1.016505e+00	1.016171e+00	1.014822e+00	1.012008e+00	1.008148e+00	1.004020e+00	1.000165e+00	9.968309e-01	9.941177e-01	9.920786e-01	9.907234e-01	9.899734e-01	9.896503e-01	9.895416e-01	9.894931e-01	9.896248e-01	9.902107e-01	9.912013e-01	9.922490e-01	9.931084e-01	9.937254e-01	9.941308e-01	9.943590e-01	9.944245e-01	9.943240e-01	9.940418e-01	9.935522e-01	9.928230e-01	9.918442e-01	9.907144e-01	9.897344e-01	9.892998e-01	9.896108e-01	9.908737e-01	9.936565e-01	9.981104e-01	1.003246e+00	1.007841e+00	1.011563e+00	1.014844e+00	1.018251e+00	1.021903e+00	1.024965e+00	1.026148e+00	9.993103e-01	9.993153e-01	9.993100e-01	9.993110e-01	9.993082e-01	9.993052e-01	9.993023e-01	9.993002e-01	9.992984e-01	9.992970e-01	9.992954e-01	9.992939e-01	9.992935e-01	9.992930e-01	9.992922e-01	9.992913e-01	9.992892e-01	9.992862e-01	9.992819e-01	9.992770e-01	9.992727e-01	9.992689e-01	9.992662e-01	9.992621e-01	9.992576e-01	9.992522e-01	9.992456e-01	9.992388e-01	9.992325e-01	9.992269e-01	9.992208e-01	9.992143e-01	9.992064e-01	9.991973e-01	9.991875e-01	9.991783e-01	9.991699e-01	9.991624e-01	9.991551e-01	9.991469e-01	9.991367e-01	9.991231e-01	9.991062e-01	9.990882e-01	9.990719e-01	9.990584e-01	9.990468e-01	9.990503e-01	9.991503e-01	9.995880e-01	1.000886e+00	1.003652e+00	1.007712e+00	1.011763e+00	1.014551e+00	1.015864e+00	1.016221e+00	1.016210e+00	1.015942e+00	1.014771e+00	1.012178e+00	1.008468e+00	1.004402e+00	1.000564e+00	9.972318e-01	9.945097e-01	9.924374e-01	9.910170e-01	9.901855e-01	9.897950e-01	9.896475e-01	9.895813e-01	9.896255e-01	9.900585e-01	9.909543e-01	9.920050e-01	9.929089e-01	9.935694e-01	9.940034e-01	9.942451e-01	9.943119e-01	9.942020e-01	9.938994e-01	9.933767e-01	9.926040e-01	9.915886e-01	9.904746e-01	9.896132e-01	9.893509e-01	9.897687e-01	9.910716e-01	9.938186e-01	9.981534e-01	1.003196e+00	1.007801e+00	1.011594e+00	1.014931e+00	1.018353e+00	1.022040e+00	1.025164e+00	1.026426e+00	9.993059e-01	9.993087e-01	9.993044e-01	9.993059e-01	9.993033e-01	9.993008e-01	9.992983e-01	9.992968e-01	9.992956e-01	9.992945e-01	9.992940e-01	9.992930e-01	9.992914e-01	9.992914e-01	9.992907e-01	9.992892e-01	9.992868e-01	9.992833e-01	9.992783e-01	9.992726e-01	9.992675e-01	9.992639e-01	9.992615e-01	9.992580e-01	9.992539e-01	9.992488e-01	9.992426e-01	9.992363e-01	9.992304e-01	9.992246e-01	9.992183e-01	9.992115e-01	9.992033e-01	9.991941e-01	9.991847e-01	9.991758e-01	9.991678e-01	9.991603e-01	9.991526e-01	9.991438e-01	9.991326e-01	9.991177e-01	9.990997e-01	9.990811e-01	9.990648e-01	9.990517e-01	9.990407e-01	9.990483e-01	9.991658e-01	9.996362e-01	1.000946e+00	1.003618e+00	1.007476e+00	1.011360e+00	1.014117e+00	1.015481e+00	1.015888e+00	1.015897e+00	1.015691e+00	1.014701e+00	1.012343e+00	1.008804e+00	1.004820e+00	1.001011e+00	9.976806e-01	9.949385e-01	9.928215e-01	9.913306e-01	9.904150e-01	9.899505e-01	9.897593e-01	9.896737e-01	9.896598e-01	9.899442e-01	9.907111e-01	9.917411e-01	9.926865e-01	9.933933e-01	9.938590e-01	9.941161e-01	9.941845e-01	9.940642e-01	9.937391e-01	9.931807e-01	9.923622e-01	9.913151e-01	9.902419e-01	9.895315e-01	9.894347e-01	9.899402e-01	9.912811e-01	9.939961e-01	9.982076e-01	1.003143e+00	1.007753e+00	1.011625e+00	1.015041e+00	1.018484e+00	1.022183e+00	1.025352e+00	1.026677e+00	9.993041e-01	9.993040e-01	9.993000e-01	9.993023e-01	9.993001e-01	9.992984e-01	9.992964e-01	9.992955e-01	9.992945e-01	9.992935e-01	9.992926e-01	9.992924e-01	9.992913e-01	9.992896e-01	9.992891e-01	9.992875e-01	9.992846e-01	9.992810e-01	9.992757e-01	9.992696e-01	9.992639e-01	9.992606e-01	9.992584e-01	9.992553e-01	9.992512e-01	9.992461e-01	9.992407e-01	9.992342e-01	9.992281e-01	9.992218e-01	9.992154e-01	9.992082e-01	9.991999e-01	9.991915e-01	9.991827e-01	9.991744e-01	9.991666e-01	9.991591e-01	9.991512e-01	9.991420e-01	9.991301e-01	9.991144e-01	9.990956e-01	9.990768e-01	9.990603e-01	9.990468e-01	9.990359e-01	9.990515e-01	9.991893e-01	9.996920e-01	1.001012e+00	1.003590e+00	1.007238e+00	1.010941e+00	1.013651e+00	1.015064e+00	1.015526e+00	1.015558e+00	1.015409e+00	1.014596e+00	1.012491e+00	1.009152e+00	1.005277e+00	1.001511e+00	9.981855e-01	9.954188e-01	9.932486e-01	9.916786e-01	9.906708e-01	9.901238e-01	9.898789e-01	9.897742e-01	9.897220e-01	9.898742e-01	9.904862e-01	9.914634e-01	9.924431e-01	9.932005e-01	9.937019e-01	9.939768e-01	9.940473e-01	9.939151e-01	9.935648e-01	9.929667e-01	9.920992e-01	9.910299e-01	9.900333e-01	9.894986e-01	9.895424e-01	9.901229e-01	9.915067e-01	9.941981e-01	9.982892e-01	1.003112e+00	1.007717e+00	1.011670e+00	1.015174e+00	1.018641e+00	1.022333e+00	1.025512e+00	1.026874e+00	9.993043e-01	9.993020e-01	9.992972e-01	9.992999e-01	9.992980e-01	9.992971e-01	9.992959e-01	9.992955e-01	9.992948e-01	9.992933e-01	9.992920e-01	9.992911e-01	9.992907e-01	9.992893e-01	9.992868e-01	9.992861e-01	9.992831e-01	9.992791e-01	9.992740e-01	9.992678e-01	9.992621e-01	9.992591e-01	9.992571e-01	9.992540e-01	9.992499e-01	9.992453e-01	9.992387e-01	9.992320e-01	9.992257e-01	9.992196e-01	9.992126e-01	9.992051e-01	9.991971e-01	9.991893e-01	9.991812e-01	9.991733e-01	9.991657e-01	9.991581e-01	9.991501e-01	9.991407e-01	9.991284e-01	9.991122e-01	9.990933e-01	9.990743e-01	9.990573e-01	9.990423e-01	9.990335e-01	9.990601e-01	9.992184e-01	9.997537e-01	1.001084e+00	1.003566e+00	1.007005e+00	1.010517e+00	1.013165e+00	1.014614e+00	1.015132e+00	1.015193e+00	1.015087e+00	1.014443e+00	1.012601e+00	1.009498e+00	1.005763e+00	1.002059e+00	9.987479e-01	9.959601e-01	9.937349e-01	9.920792e-01	9.909685e-01	9.903263e-01	9.900167e-01	9.898831e-01	9.898056e-01	9.898515e-01	9.902913e-01	9.911733e-01	9.921736e-01	9.929875e-01	9.935328e-01	9.938303e-01	9.939045e-01	9.937588e-01	9.933778e-01	9.927306e-01	9.918085e-01	9.907348e-01	9.898576e-01	9.895129e-01	9.896778e-01	9.903190e-01	9.917589e-01	9.944379e-01	9.984199e-01	1.003127e+00	1.007716e+00	1.011740e+00	1.015324e+00	1.018822e+00	1.022475e+00	1.025614e+00	1.026981e+00	9.993060e-01	9.993013e-01	9.992954e-01	9.992986e-01	9.992967e-01	9.992964e-01	9.992959e-01	9.992959e-01	9.992953e-01	9.992934e-01	9.992914e-01	9.992899e-01	9.992888e-01	9.992881e-01	9.992861e-01	9.992830e-01	9.992816e-01	9.992775e-01	9.992723