# vtk DataFile Version 3.0
vtk output
ASCII
DATASET STRUCTURED_GRID
DIMENSIONS 101 101 1
POINTS 10201 double
0.000000e+00	0.000000e+00	0.0	1.000000e-02	0.000000e+00	0.0	2.000000e-02	0.000000e+00	0.0	3.000000e-02	0.000000e+00	0.0	4.000000e-02	0.000000e+00	0.0	5.000000e-02	0.000000e+00	0.0	6.000000e-02	0.000000e+00	0.0	7.000000e-02	0.000000e+00	0.0	8.000000e-02	0.000000e+00	0.0	9.000000e-02	0.000000e+00	0.0	1.000000e-01	0.000000e+00	0.0	1.100000e-01	0.000000e+00	0.0	1.200000e-01	0.000000e+00	0.0	1.300000e-01	0.000000e+00	0.0	1.400000e-01	0.000000e+00	0.0	1.500000e-01	0.000000e+00	0.0	1.600000e-01	0.000000e+00	0.0	1.700000e-01	0.000000e+00	0.0	1.800000e-01	0.000000e+00	0.0	1.900000e-01	0.000000e+00	0.0	2.000000e-01	0.000000e+00	0.0	2.100000e-01	0.000000e+00	0.0	2.200000e-01	0.000000e+00	0.0	2.300000e-01	0.000000e+00	0.0	2.400000e-01	0.000000e+00	0.0	2.500000e-01	0.000000e+00	0.0	2.600000e-01	0.000000e+00	0.0	2.700000e-01	0.000000e+00	0.0	2.800000e-01	0.000000e+00	0.0	2.900000e-01	0.000000e+00	0.0	3.000000e-01	0.000000e+00	0.0	3.100000e-01	0.000000e+00	0.0	3.200000e-01	0.000000e+00	0.0	3.300000e-01	0.000000e+00	0.0	3.400000e-01	0.000000e+00	0.0	3.500000e-01	0.000000e+00	0.0	3.600000e-01	0.000000e+00	0.0	3.700000e-01	0.000000e+00	0.0	3.800000e-01	0.000000e+00	0.0	3.900000e-01	0.000000e+00	0.0	4.000000e-01	0.000000e+00	0.0	4.100000e-01	0.000000e+00	0.0	4.200000e-01	0.000000e+00	0.0	4.300000e-01	0.000000e+00	0.0	4.400000e-01	0.000000e+00	0.0	4.500000e-01	0.000000e+00	0.0	4.600000e-01	0.000000e+00	0.0	4.700000e-01	0.000000e+00	0.0	4.800000e-01	0.000000e+00	0.0	4.900000e-01	0.000000e+00	0.0	5.000000e-01	0.000000e+00	0.0	5.100000e-01	0.000000e+00	0.0	5.200000e-01	0.000000e+00	0.0	5.300000e-01	0.000000e+00	0.0	5.400000e-01	0.000000e+00	0.0	5.500000e-01	0.000000e+00	0.0	5.600000e-01	0.000000e+00	0.0	5.700000e-01	0.000000e+00	0.0	5.800000e-01	0.000000e+00	0.0	5.900000e-01	0.000000e+00	0.0	6.000000e-01	0.000000e+00	0.0	6.100000e-01	0.000000e+00	0.0	6.200000e-01	0.000000e+00	0.0	6.300000e-01	0.000000e+00	0.0	6.400000e-01	0.000000e+00	0.0	6.500000e-01	0.000000e+00	0.0	6.600000e-01	0.000000e+00	0.0	6.700000e-01	0.000000e+00	0.0	6.800000e-01	0.000000e+00	0.0	6.900000e-01	0.000000e+00	0.0	7.000000e-01	0.000000e+00	0.0	7.100000e-01	0.000000e+00	0.0	7.200000e-01	0.000000e+00	0.0	7.300000e-01	0.000000e+00	0.0	7.400000e-01	0.000000e+00	0.0	7.500000e-01	0.000000e+00	0.0	7.600000e-01	0.000000e+00	0.0	7.700000e-01	0.000000e+00	0.0	7.800000e-01	0.000000e+00	0.0	7.900000e-01	0.000000e+00	0.0	8.000000e-01	0.000000e+00	0.0	8.100000e-01	0.000000e+00	0.0	8.200000e-01	0.000000e+00	0.0	8.300000e-01	0.000000e+00	0.0	8.400000e-01	0.000000e+00	0.0	8.500000e-01	0.000000e+00	0.0	8.600000e-01	0.000000e+00	0.0	8.700000e-01	0.000000e+00	0.0	8.800000e-01	0.000000e+00	0.0	8.900000e-01	0.000000e+00	0.0	9.000000e-01	0.000000e+00	0.0	9.100000e-01	0.000000e+00	0.0	9.200000e-01	0.000000e+00	0.0	9.300000e-01	0.000000e+00	0.0	9.400000e-01	0.000000e+00	0.0	9.500000e-01	0.000000e+00	0.0	9.600000e-01	0.000000e+00	0.0	9.700000e-01	0.000000e+00	0.0	9.800000e-01	0.000000e+00	0.0	9.900000e-01	0.000000e+00	0.0	1.000000e+00	0.000000e+00	0.0	0.000000e+00	1.000000e-02	0.0	1.000000e-02	1.000000e-02	0.0	2.000000e-02	1.000000e-02	0.0	3.000000e-02	1.000000e-02	0.0	4.000000e-02	1.000000e-02	0.0	5.000000e-02	1.000000e-02	0.0	6.000000e-02	1.000000e-02	0.0	7.000000e-02	1.000000e-02	0.0	8.000000e-02	1.000000e-02	0.0	9.000000e-02	1.000000e-02	0.0	1.000000e-01	1.000000e-02	0.0	1.100000e-01	1.000000e-02	0.0	1.200000e-01	1.000000e-02	0.0	1.300000e-01	1.000000e-02	0.0	1.400000e-01	1.000000e-02	0.0	1.500000e-01	1.000000e-02	0.0	1.600000e-01	1.000000e-02	0.0	1.700000e-01	1.000000e-02	0.0	1.800000e-01	1.000000e-02	0.0	1.900000e-01	1.000000e-02	0.0	2.000000e-01	1.000000e-02	0.0	2.100000e-01	1.000000e-02	0.0	2.200000e-01	1.000000e-02	0.0	2.300000e-01	1.000000e-02	0.0	2.400000e-01	1.000000e-02	0.0	2.500000e-01	1.000000e-02	0.0	2.600000e-01	1.000000e-02	0.0	2.700000e-01	1.000000e-02	0.0	2.800000e-01	1.000000e-02	0.0	2.900000e-01	1.000000e-02	0.0	3.000000e-01	1.000000e-02	0.0	3.100000e-01	1.000000e-02	0.0	3.200000e-01	1.000000e-02	0.0	3.300000e-01	1.000000e-02	0.0	3.400000e-01	1.000000e-02	0.0	3.500000e-01	1.000000e-02	0.0	3.600000e-01	1.000000e-02	0.0	3.700000e-01	1.000000e-02	0.0	3.800000e-01	1.000000e-02	0.0	3.900000e-01	1.000000e-02	0.0	4.000000e-01	1.000000e-02	0.0	4.100000e-01	1.000000e-02	0.0	4.200000e-01	1.000000e-02	0.0	4.300000e-01	1.000000e-02	0.0	4.400000e-01	1.000000e-02	0.0	4.500000e-01	1.000000e-02	0.0	4.600000e-01	1.000000e-02	0.0	4.700000e-01	1.000000e-02	0.0	4.800000e-01	1.000000e-02	0.0	4.900000e-01	1.000000e-02	0.0	5.000000e-01	1.000000e-02	0.0	5.100000e-01	1.000000e-02	0.0	5.200000e-01	1.000000e-02	0.0	5.300000e-01	1.000000e-02	0.0	5.400000e-01	1.000000e-02	0.0	5.500000e-01	1.000000e-02	0.0	5.600000e-01	1.000000e-02	0.0	5.700000e-01	1.000000e-02	0.0	5.800000e-01	1.000000e-02	0.0	5.900000e-01	1.000000e-02	0.0	6.000000e-01	1.000000e-02	0.0	6.100000e-01	1.000000e-02	0.0	6.200000e-01	1.000000e-02	0.0	6.300000e-01	1.000000e-02	0.0	6.400000e-01	1.000000e-02	0.0	6.500000e-01	1.000000e-02	0.0	6.600000e-01	1.000000e-02	0.0	6.700000e-01	1.000000e-02	0.0	6.800000e-01	1.000000e-02	0.0	6.900000e-01	1.000000e-02	0.0	7.000000e-01	1.000000e-02	0.0	7.100000e-01	1.000000e-02	0.0	7.200000e-01	1.000000e-02	0.0	7.300000e-01	1.000000e-02	0.0	7.400000e-01	1.000000e-02	0.0	7.500000e-01	1.000000e-02	0.0	7.600000e-01	1.000000e-02	0.0	7.700000e-01	1.000000e-02	0.0	7.800000e-01	1.000000e-02	0.0	7.900000e-01	1.000000e-02	0.0	8.000000e-01	1.000000e-02	0.0	8.100000e-01	1.000000e-02	0.0	8.200000e-01	1.000000e-02	0.0	8.300000e-01	1.000000e-02	0.0	8.400000e-01	1.000000e-02	0.0	8.500000e-01	1.000000e-02	0.0	8.600000e-01	1.000000e-02	0.0	8.700000e-01	1.000000e-02	0.0	8.800000e-01	1.000000e-02	0.0	8.900000e-01	1.000000e-02	0.0	9.000000e-01	1.000000e-02	0.0	9.100000e-01	1.000000e-02	0.0	9.200000e-01	1.000000e-02	0.0	9.300000e-01	1.000000e-02	0.0	9.400000e-01	1.000000e-02	0.0	9.500000e-01	1.000000e-02	0.0	9.600000e-01	1.000000e-02	0.0	9.700000e-01	1.000000e-02	0.0	9.800000e-01	1.000000e-02	0.0	9.900000e-01	1.000000e-02	0.0	1.000000e+00	1.000000e-02	0.0	0.000000e+00	2.000000e-02	0.0	1.000000e-02	2.000000e-02	0.0	2.000000e-02	2.000000e-02	0.0	3.000000e-02	2.000000e-02	0.0	4.000000e-02	2.000000e-02	0.0	5.000000e-02	2.000000e-02	0.0	6.000000e-02	2.000000e-02	0.0	7.000000e-02	2.000000e-02	0.0	8.000000e-02	2.000000e-02	0.0	9.000000e-02	2.000000e-02	0.0	1.000000e-01	2.000000e-02	0.0	1.100000e-01	2.000000e-02	0.0	1.200000e-01	2.000000e-02	0.0	1.300000e-01	2.000000e-02	0.0	1.400000e-01	2.000000e-02	0.0	1.500000e-01	2.000000e-02	0.0	1.600000e-01	2.000000e-02	0.0	1.700000e-01	2.000000e-02	0.0	1.800000e-01	2.000000e-02	0.0	1.900000e-01	2.000000e-02	0.0	2.000000e-01	2.000000e-02	0.0	2.100000e-01	2.000000e-02	0.0	2.200000e-01	2.000000e-02	0.0	2.300000e-01	2.000000e-02	0.0	2.400000e-01	2.000000e-02	0.0	2.500000e-01	2.000000e-02	0.0	2.600000e-01	2.000000e-02	0.0	2.700000e-01	2.000000e-02	0.0	2.800000e-01	2.000000e-02	0.0	2.900000e-01	2.000000e-02	0.0	3.000000e-01	2.000000e-02	0.0	3.100000e-01	2.000000e-02	0.0	3.200000e-01	2.000000e-02	0.0	3.300000e-01	2.000000e-02	0.0	3.400000e-01	2.000000e-02	0.0	3.500000e-01	2.000000e-02	0.0	3.600000e-01	2.000000e-02	0.0	3.700000e-01	2.000000e-02	0.0	3.800000e-01	2.000000e-02	0.0	3.900000e-01	2.000000e-02	0.0	4.000000e-01	2.000000e-02	0.0	4.100000e-01	2.000000e-02	0.0	4.200000e-01	2.000000e-02	0.0	4.300000e-01	2.000000e-02	0.0	4.400000e-01	2.000000e-02	0.0	4.500000e-01	2.000000e-02	0.0	4.600000e-01	2.000000e-02	0.0	4.700000e-01	2.000000e-02	0.0	4.800000e-01	2.000000e-02	0.0	4.900000e-01	2.000000e-02	0.0	5.000000e-01	2.000000e-02	0.0	5.100000e-01	2.000000e-02	0.0	5.200000e-01	2.000000e-02	0.0	5.300000e-01	2.000000e-02	0.0	5.400000e-01	2.000000e-02	0.0	5.500000e-01	2.000000e-02	0.0	5.600000e-01	2.000000e-02	0.0	5.700000e-01	2.000000e-02	0.0	5.800000e-01	2.000000e-02	0.0	5.900000e-01	2.000000e-02	0.0	6.000000e-01	2.000000e-02	0.0	6.100000e-01	2.000000e-02	0.0	6.200000e-01	2.000000e-02	0.0	6.300000e-01	2.000000e-02	0.0	6.400000e-01	2.000000e-02	0.0	6.500000e-01	2.000000e-02	0.0	6.600000e-01	2.000000e-02	0.0	6.700000e-01	2.000000e-02	0.0	6.800000e-01	2.000000e-02	0.0	6.900000e-01	2.000000e-02	0.0	7.000000e-01	2.000000e-02	0.0	7.100000e-01	2.000000e-02	0.0	7.200000e-01	2.000000e-02	0.0	7.300000e-01	2.000000e-02	0.0	7.400000e-01	2.000000e-02	0.0	7.500000e-01	2.000000e-02	0.0	7.600000e-01	2.000000e-02	0.0	7.700000e-01	2.000000e-02	0.0	7.800000e-01	2.000000e-02	0.0	7.900000e-01	2.000000e-02	0.0	8.000000e-01	2.000000e-02	0.0	8.100000e-01	2.000000e-02	0.0	8.200000e-01	2.000000e-02	0.0	8.300000e-01	2.000000e-02	0.0	8.400000e-01	2.000000e-02	0.0	8.500000e-01	2.000000e-02	0.0	8.600000e-01	2.000000e-02	0.0	8.700000e-01	2.000000e-02	0.0	8.800000e-01	2.000000e-02	0.0	8.900000e-01	2.000000e-02	0.0	9.000000e-01	2.000000e-02	0.0	9.100000e-01	2.000000e-02	0.0	9.200000e-01	2.000000e-02	0.0	9.300000e-01	2.000000e-02	0.0	9.400000e-01	2.000000e-02	0.0	9.500000e-01	2.000000e-02	0.0	9.600000e-01	2.000000e-02	0.0	9.700000e-01	2.000000e-02	0.0	9.800000e-01	2.000000e-02	0.0	9.900000e-01	2.000000e-02	0.0	1.000000e+00	2.000000e-02	0.0	0.000000e+00	3.000000e-02	0.0	1.000000e-02	3.000000e-02	0.0	2.000000e-02	3.000000e-02	0.0	3.000000e-02	3.000000e-02	0.0	4.000000e-02	3.000000e-02	0.0	5.000000e-02	3.000000e-02	0.0	6.000000e-02	3.000000e-02	0.0	7.000000e-02	3.000000e-02	0.0	8.000000e-02	3.000000e-02	0.0	9.000000e-02	3.000000e-02	0.0	1.000000e-01	3.000000e-02	0.0	1.100000e-01	3.000000e-02	0.0	1.200000e-01	3.000000e-02	0.0	1.300000e-01	3.000000e-02	0.0	1.400000e-01	3.000000e-02	0.0	1.500000e-01	3.000000e-02	0.0	1.600000e-01	3.000000e-02	0.0	1.700000e-01	3.000000e-02	0.0	1.800000e-01	3.000000e-02	0.0	1.900000e-01	3.000000e-02	0.0	2.000000e-01	3.000000e-02	0.0	2.100000e-01	3.000000e-02	0.0	2.200000e-01	3.000000e-02	0.0	2.300000e-01	3.000000e-02	0.0	2.400000e-01	3.000000e-02	0.0	2.500000e-01	3.000000e-02	0.0	2.600000e-01	3.000000
[...]
POINT_DATA 10201

SCALARS Height double 1
LOOKUP_TABLE default
9.993223e-01	9.993294e-01	9.993413e-01	9.993440e-01	9.993473e-01	9.993481e-01	9.993478e-01	9.993435e-01	9.993392e-01	9.993363e-01	9.993335e-01	9.993309e-01	9.993290e-01	9.993280e-01	9.993279e-01	9.993277e-01	9.993279e-01	9.993294e-01	9.993302e-01	9.993307e-01	9.993300e-01	9.993237e-01	9.993177e-01	9.993101e-01	9.993050e-01	9.992996e-01	9.992951e-01	9.992894e-01	9.992825e-01	9.992746e-01	9.992661e-01	9.992577e-01	9.992499e-01	9.992424e-01	9.992344e-01	9.992262e-01	9.992175e-01	9.992086e-01	9.991992e-01	9.991897e-01	9.991798e-01	9.991715e-01	9.991660e-01	9.991628e-01	9.991672e-01	9.992134e-01	9.993843e-01	9.998803e-01	1.001198e+00	1.004030e+00	1.008460e+00	1.013277e+00	1.016619e+00	1.018003e+00	1.018198e+00	1.017845e+00	1.016659e+00	1.014316e+00	1.010851e+00	1.006746e+00	1.002507e+00	9.985526e-01	9.951540e-01	9.924960e-01	9.906944e-01	9.897105e-01	9.893364e-01	9.892724e-01	9.893653e-01	9.897263e-01	9.904474e-01	9.914694e-01	9.925766e-01	9.935542e-01	9.943041e-01	9.948302e-01	9.951821e-01	9.954118e-01	9.955559e-01	9.956323e-01	9.956404e-01	9.955760e-01	9.954334e-01	9.952125e-01	9.949023e-01	9.944859e-01	9.939868e-01	9.935976e-01	9.937687e-01	9.953210e-01	9.986975e-01	1.003009e+00	1.006449e+00	1.008085e+00	1.008467e+00	1.008643e+00	1.008698e+00	1.008576e+00	1.008213e+00	1.007976e+00	1.006983e+00	9.993335e-01	9.993350e-01	9.993447e-01	9.993469e-01	9.993485e-01	9.993489e-01	9.993478e-01	9.993453e-01	9.993424e-01	9.993391e-01	9.993346e-01	9.993304e-01	9.993268e-01	9.993243e-01	9.993226e-01	9.993222e-01	9.993189e-01	9.993231e-01	9.993193e-01	9.993168e-01	9.993142e-01	9.993089e-01	9.993059e-01	9.993010e-01	9.992914e-01	9.992881e-01	9.992834e-01	9.992783e-01	9.992725e-01	9.992660e-01	9.992592e-01	9.992528e-01	9.992469e-01	9.992410e-01	9.992345e-01	9.992265e-01	9.992177e-01	9.992084e-01	9.991987e-01	9.991895e-01	9.991790e-01	9.991702e-01	9.991637e-01	9.991580e-01	9.991555e-01	9.991699e-01	9.992584e-01	9.996444e-01	1.000908e+00	1.003894e+00	1.008641e+00	1.013491e+00	1.016713e+00	1.018018e+00	1.018221e+00	1.018024e+00	1.016882e+00	1.014413e+00	1.010847e+00	1.006665e+00	1.002393e+00	9.984162e-01	9.949972e-01	9.923417e-01	9.905764e-01	9.896502e-01	9.893155e-01	9.892467e-01	9.892965e-01	9.896578e-01	9.904138e-01	9.914587e-01	9.925713e-01	9.935455e-01	9.942908e-01	9.948150e-01	9.951676e-01	9.953996e-01	9.955466e-01	9.956248e-01	9.956329e-01	9.955660e-01	9.954209e-01	9.951971e-01	9.948815e-01	9.944487e-01	9.939003e-01	9.933877e-01	9.934866e-01	9.951591e-01	9.988073e-01	1.003208e+00	1.006511e+00	1.008064e+00	1.008454e+00	1.008721e+00	1.008809e+00	1.008547e+00	1.008069e+00	1.007828e+00	1.006960e+00	9.993400e-01	9.993380e-01	9.993513e-01	9.993528e-01	9.993553e-01	9.993552e-01	9.993527e-01	9.993486e-01	9.993435e-01	9.993389e-01	9.993342e-01	9.993303e-01	9.993276e-01	9.993260e-01	9.993249e-01	9.993241e-01	9.993217e-01	9.993237e-01	9.993213e-01	9.993207e-01	9.993192e-01	9.993134e-01	9.993080e-01	9.993025e-01	9.992954e-01	9.992895e-01	9.992857e-01	9.992794e-01	9.992725e-01	9.992653e-01	9.992586e-01	9.992526e-01	9.992471e-01	9.992416e-01	9.992356e-01	9.992288e-01	9.992206e-01	9.992117e-01	9.992022e-01	9.991925e-01	9.991830e-01	9.991741e-01	9.991659e-01	9.991594e-01	9.991555e-01	9.991660e-01	9.992504e-01	9.996365e-01	1.000941e+00	1.004040e+00	1.008819e+00	1.013534e+00	1.016591e+00	1.017850e+00	1.018070e+00	1.017937e+00	1.016901e+00	1.014377e+00	1.010770e+00	1.006653e+00	1.002454e+00	9.985129e-01	9.951129e-01	9.924786e-01	9.907127e-01	9.897552e-01	9.893856e-01	9.892994e-01	9.893223e-01	9.896537e-01	9.904269e-01	9.914816e-01	9.925791e-01	9.935384e-01	9.942789e-01	9.948047e-01	9.951606e-01	9.953956e-01	9.955444e-01	9.956229e-01	9.956292e-01	9.955597e-01	9.954120e-01	9.951856e-01	9.948657e-01	9.944252e-01	9.938617e-01	9.933491e-01	9.935092e-01	9.953091e-01	9.989997e-01	1.003272e+00	1.006439e+00	1.007947e+00	1.008375e+00	1.008719e+00	1.008937e+00	1.008658e+00	1.008120e+00	1.007870e+00	1.006976e+00	9.993382e-01	9.993353e-01	9.993489e-01	9.993508e-01	9.993534e-01	9.993533e-01	9.993503e-01	9.993455e-01	9.993414e-01	9.993377e-01	9.993337e-01	9.993303e-01	9.993280e-01	9.993266e-01	9.993256e-01	9.993251e-01	9.993219e-01	9.993236e-01	9.993217e-01	9.993207e-01	9.993191e-01	9.993135e-01	9.993084e-01	9.993022e-01	9.992946e-01	9.992893e-01	9.992834e-01	9.992771e-01	9.992700e-01	9.992631e-01	9.992570e-01	9.992518e-01	9.992470e-01	9.992418e-01	9.992355e-01	9.992284e-01	9.992202e-01	9.992112e-01	9.992015e-01	9.991916e-01	9.991820e-01	9.991726e-01	9.991637e-01	9.991556e-01	9.991500e-01	9.991564e-01	9.992279e-01	9.995937e-01	1.000904e+00	1.004065e+00	1.008885e+00	1.013535e+00	1.016486e+00	1.017707e+00	1.017941e+00	1.017836e+00	1.016931e+00	1.014450e+00	1.010783e+00	1.006667e+00	1.002511e+00	9.985938e-01	9.951973e-01	9.925582e-01	9.907844e-01	9.898145e-01	9.894207e-01	9.893258e-01	9.893314e-01	9.896138e-01	9.903776e-01	9.914473e-01	9.925419e-01	9.934944e-01	9.942371e-01	9.947705e-01	9.951344e-01	9.953758e-01	9.955289e-01	9.956092e-01	9.956149e-01	9.955423e-01	9.953902e-01	9.951585e-01	9.948326e-01	9.943837e-01	9.938069e-01	9.932757e-01	9.934396e-01	9.952898e-01	9.990087e-01	1.003250e+00	1.006361e+00	1.007839e+00	1.008278e+00	1.008663e+00	1.009027e+00	1.008828e+00	1.008247e+00	1.007962e+00	1.007084e+00	9.993387e-01	9.993360e-01	9.993491e-01	9.993512e-01	9.993526e-01	9.993514e-01	9.993481e-01	9.993441e-01	9.993404e-01	9.993366e-01	9.993324e-01	9.993289e-01	9.993264e-01	9.993250e-01	9.993241e-01	9.993233e-01	9.993207e-01	9.993221e-01	9.993207e-01	9.993197e-01	9.993182e-01	9.993130e-01	9.993077e-01	9.993012e-01	9.992932e-01	9.992869e-01	9.992807e-01	9.992739e-01	9.992670e-01	9.992607e-01	9.992555e-01	9.992512e-01	9.992471e-01	9.992423e-01	9.992361e-01	9.992288e-01	9.992202e-01	9.992107e-01	9.992007e-01	9.991906e-01	9.991809e-01	9.991708e-01	9.991616e-01	9.991526e-01	9.991455e-01	9.991499e-01	9.992159e-01	9.995684e-01	1.000876e+00	1.004065e+00	1.008894e+00	1.013498e+00	1.016372e+00	1.017549e+00	1.017783e+00	1.017696e+00	1.016900e+00	1.014539e+00	1.010855e+00	1.006716e+00	1.002605e+00	9.987332e-01	9.953532e-01	9.926995e-01	9.909001e-01	9.899050e-01	9.894937e-01	9.893810e-01	9.893689e-01	9.895938e-01	9.903089e-01	9.913809e-01	9.924843e-01	9.934381e-01	9.941863e-01	9.947304e-01	9.951050e-01	9.953536e-01	9.955105e-01	9.955916e-01	9.955962e-01	9.955206e-01	9.953642e-01	9.951268e-01	9.947938e-01	9.943364e-01	9.937512e-01	9.932133e-01	9.933730e-01	9.952265e-01	9.989562e-01	1.003205e+00	1.006280e+00	1.007729e+00	1.008182e+00	1.008612e+00	1.009101e+00	1.009045e+00	1.008480e+00	1.008143e+00	1.007265e+00	9.993394e-01	9.993376e-01	9.993491e-01	9.993509e-01	9.993510e-01	9.993493e-01	9.993463e-01	9.993430e-01	9.993399e-01	9.993366e-01	9.993327e-01	9.993293e-01	9.993269e-01	9.993253e-01	9.993241e-01	9.993227e-01	9.993201e-01	9.993205e-01	9.993191e-01	9.993182e-01	9.993169e-01	9.993121e-01	9.993076e-01	9.993009e-01	9.992933e-01	9.992872e-01	9.992811e-01	9.992745e-01	9.992681e-01	9.992624e-01	9.992577e-01	9.992538e-01	9.992499e-01	9.992449e-01	9.992380e-01	9.992297e-01	9.992207e-01	9.992111e-01	9.992008e-01	9.991904e-01	9.991800e-01	9.991689e-01	9.991593e-01	9.991498e-01	9.991417e-01	9.991450e-01	9.992092e-01	9.995565e-01	1.000856e+00	1.004043e+00	1.008863e+00	1.013411e+00	1.016234e+00	1.017385e+00	1.017616e+00	1.017540e+00	1.016837e+00	1.014630e+00	1.010994e+00	1.006825e+00	1.002720e+00	9.989024e-01	9.955518e-01	9.928885e-01	9.910560e-01	9.900217e-01	9.895828e-01	9.894609e-01	9.894396e-01	9.896082e-01	9.902441e-01	9.912900e-01	9.924055e-01	9.933713e-01	9.941279e-01	9.946837e-01	9.950705e-01	9.953272e-01	9.954872e-01	9.955676e-01	9.955700e-01	9.954919e-01	9.953324e-01	9.950902e-01	9.947488e-01	9.942822e-01	9.936915e-01	9.931551e-01	9.933053e-01	9.951321e-01	9.988671e-01	1.003141e+00	1.006209e+00	1.007638e+00	1.008109e+00	1.008575e+00	1.009173e+00	1.009290e+00	1.008799e+00	1.008405e+00	1.007511e+00	9.993415e-01	9.993418e-01	9.993504e-01	9.993511e-01	9.993498e-01	9.993473e-01	9.993448e-01	9.993423e-01	9.993405e-01	9.993377e-01	9.993344e-01	9.993314e-01	9.993288e-01	9.993268e-01	9.993250e-01	9.993229e-01	9.993203e-01	9.993191e-01	9.993168e-01	9.993158e-01	9.993142e-01	9.993095e-01	9.993067e-01	9.992999e-01	9.992936e-01	9.992883e-01	9.992826e-01	9.992764e-01	9.992706e-01	9.992653e-01	9.992613e-01	9.992573e-01	9.992520e-01	9.992455e-01	9.992377e-01	9.992298e-01	9.992211e-01	9.992117e-01	9.992014e-01	9.991911e-01	9.991798e-01	9.991683e-01	9.991584e-01	9.991489e-01	9.991408e-01	9.991444e-01	9.992101e-01	9.995596e-01	1.000852e+00	1.004005e+00	1.008772e+00	1.013271e+00	1.016066e+00	1.017207e+00	1.017440e+00	1.017371e+00	1.016749e+00	1.014709e+00	1.011181e+00	1.007002e+00	1.002887e+00	9.991012e-01	9.957806e-01	9.931150e-01	9.912508e-01	9.901728e-01	9.896954e-01	9.895541e-01	9.895271e-01	9.896477e-01	9.901944e-01	9.911890e-01	9.923130e-01	9.932973e-01	9.940649e-01	9.946316e-01	9.950302e-01	9.952966e-01	9.954596e-01	9.955378e-01	9.955373e-01	9.954572e-01	9.952956e-01	9.950483e-01	9.946977e-01	9.942207e-01	9.936278e-01	9.930968e-01	9.932382e-01	9.950310e-01	9.987552e-01	1.003047e+00	1.006127e+00	1.007557e+00	1.008050e+00	1.008560e+00	1.009259e+00	1.009556e+00	1.009185e+00	1.008775e+00	1.007855e+00	9.993440e-01	9.993466e-01	9.993514e-01	9.993503e-01	9.993486e-01	9.993457e-01	9.993432e-01	9.993403e-01	9.993395e-01	9.993386e-01	9.993365e-01	9.993336e-01	9.993309e-01	9.993286e-01	9.993264e-01	9.993241e-01	9.993219e-01	9.993176e-01	9.993169e-01	9.993143e-01	9.993122e-01	9.993077e-01	9.993055e-01	9.992994e-01	9.992950e-01	9.992897e-01	9.992843e-01	9.992784e-01	9.992726e-01	9.992675e-01	9.992625e-01	9.992565e-01	9.992504e-01	9.992437e-01	9.992367e-01	9.992289e-01	9.992205e-01	9.992117e-01	9.992021e-01	9.991912e-01	9.991794e-01	9.991676e-01	9.991578e-01	9.991489e-01	9.991410e-01	9.991456e-01	9.992152e-01	9.995737e-01	1.000865e+00	1.003965e+00	1.008636e+00	1.013072e+00	1.015851e+00	1.017002e+00	1.017246e+00	1.017186e+00	1.016641e+00	1.014770e+00	1.011396e+00	1.007260e+00	1.003124e+00	9.993364e-01	9.960358e-01	9.933695e-01	9.914729e-01	9.903481e-01	9.898285e-01	9.896617e-01	9.896241e-01	9.896989e-01	9.901514e-01	9.910768e-01	9.921963e-01	9.932031e-01	9.939890e-01	9.945696e-01	9.949822e-01	9.952585e-01	9.954260e-01	9.955036e-01	9.955004e-01	9.954179e-01	9.952533e-01	9.949987e-01	9.946382e-01	9.941522e-01	9.935559e-01	9.930283e-01	9.931619e-01	9.949259e-01	9.986231e-01	1.002909e+00	1.006003e+00	1.007456e+00	1.007994e+00	1.008552e+00	1.009355e+00	1.009835e+00	1.009617e+00	1.009256e+00	1.008333e+00	9.993447e-01	9.993501e-01	9.993511e-01	9.993508e-01	9.993483e-01	9.993455e-01	9.993427e-01	9.993402e-01	9.993373e-01	9.993366e-01	9.993350e-01	9.993336e-01	9.993310e-01	9.993287e-01	9.993266e-01	9.993247e-01	9.993220e-01	9.993201e-01	9.993162e-01	9.993143e-01	9.993115e-01	9.993080e-01	9.993041e-01	9.992991e-01	9.992958e-01	9.992909e-01	9.992854e-01	9.992793e-01	9.992732e-01	9.992671e-01	9.992607e-01	9.992545e-01	9.992484e-01	9.992424e-01	9.992355e-01	9.992281e-01	9.992203e-01	9.992118e-01	9.992023e-01	9.991915e-01	9.991794e-01	9.991674e-01	9.991576e-01	9.991499e-01	9.991424e-01	9.991473e-01	9.992220e-01	9.995933e-01	1.000887e+00	1.003926e+00	1.008473e+00	1.012820e+00	1.015584e+00	1.016757e+00	1.017021e+00	1.016974e+00	1.016505e+00	1.014808e+00	1.011612e+00	1.007558e+00	1.003418e+00	9.996184e-01	9.963264e-01	9.936576e-01	9.917242e-01	9.905421e-01	9.899704e-01	9.897715e-01	9.897210e-01	9.897550e-01	9.901097e-01	9.909490e-01	9.920524e-01	9.930858e-01	9.938990e-01	9.944969e-01	9.949222e-01	9.952093e-01	9.953832e-01	9.954628e-01	9.954584e-01	9.953726e-01	9.952017e-01	9.949385e-01	9.945677e-01	9.940734e-01	9.934722e-01	9.929417e-01	9.930701e-01	9.948116e-01	9.984724e-01	1.002727e+00	1.005826e+00	1.007317e+00	1.007910e+00	1.008534e+00	1.009456e+00	1.010123e+00	1.010083e+00	1.009824e+00	1.008928e+00	9.993461e-01	9.993516e-01	9.993515e-01	9.993512e-01	9.993483e-01	9.993455e-01	9.993426e-01	9.993394e-01	9.993362e-01	9.993329e-01	9.993314e-01	9.993297e-01	9.993284e-01	9.993264e-01	9.993245e-01	9.993230e-01	9.993211e-01	9.993202e-01	9.993179e-01	9.993154e-01	9.993129e-01	9.993087e-01	9.993044e-01	9.992997e-01	9.992945e-01	9.992901e-01	9.992847e-01	9.992786e-01	9.992719e-01	9.992650e-01	9.992581e-01	9.992518e-01	9.992460e-01	9.992404e-01	9.992340e-01	9.992271e-01	9.992194e-01	9.992110e-01	9.992018e-01	9.991911e-01	9.991788e-01	9.991667e-01	9.991572e-01	9.991504e-01	9.991440e-01	9.991492e-01	9.992296e-01	9.996183e-01	1.000917e+00	1.003885e+00	1.008289e+00	1.012529e+00	1.015274e+00	1.016471e+00	1.016760e+00	1.016728e+00	1.016338e+00	1.014816e+00	1.011814e+00	1.007869e+00	1.003752e+00	9.999460e-01	9.966568e-01	9.939849e-01	9.920123e-01	9.907607e-01	9.901221e-01	9.898817e-01	9.898160e-01	9.898159e-01	9.900715e-01	9.908053e-01	9.918747e-01	9.929323e-01	9.937818e-01	9.944054e-01	9.948467e-01	9.951456e-01	9.953287e-01	9.954126e-01	9.954075e-01	9.953163e-01	9.951375e-01	9.948638e-01	9.944817e-01	9.939757e-01	9.933631e-01	9.928281e-01	9.929579e-01	9.946866e-01	9.983099e-01	1.002513e+00	1.005600e+00	1.007136e+00	1.007806e+00	1.008508e+00	1.009559e+00	1.010415e+00	1.010572e+00	1.010446e+00	1.009604e+00	9.993444e-01	9.993492e-01	9.993493e-01	9.993493e-01	9.993465e-01	9.993439e-01	9.993410e-01	9.993376e-01	9.993336e-01	9.993298e-01	9.993261e-01	9.993252e-01	9.993237e-01	9.993227e-01	9.993214e-01	9.993203e-01	9.993190e-01	9.993185e-01	9.993177e-01	9.993156e-01	9.993122e-01	9.993081e-01	9.993032e-01	9.992971e-01	9.992921e-01	9.992877e-01	9.992825e-01	9.992764e-01	9.992693e-01	9.992619e-01	9.992546e-01	9.992485e-01	9.992433e-01	9.992381e-01	9.992321e-01	9.992251e-01	9.992172e-01	9.992087e-01	9.991993e-01	9.991885e-01	9.991761e-01	9.991640e-01	9.991548e-01	9.991488e-01	9.991434e-01	9.991493e-01	9.992367e-01	9.996483e-01	1.000955e+00	1.003840e+00	1.008082e+00	1.012206e+00	1.014931e+00	1.016156e+00	1.016471e+00	1.016454e+00	1.016131e+00	1.014788e+00	1.011995e+00	1.008180e+00	1.004108e+00	1.000309e+00	9.970240e-01	9.943488e-01	9.923392e-01	9.910130e-01	9.902944e-01	9.899997e-01	9.899137e-01	9.898901e-01	9.900483e-01	9.906544e-01	9.916659e-01	9.927400e-01	9.936317e-01	9.942908e-01	9.947546e-01	9.950683e-01	9.952619e-01	9.953515e-01	9.953452e-01	9.952475e-01	9.950588e-01	9.947736e-01	9.943780e-01	9.938547e-01	9.932242e-01	9.926854e-01	9.928289e-01	9.945620e-01	9.981450e-01	1.002278e+00	1.005346e+00	1.006937e+00	1.007699e+00	1.008493e+00	1.009667e+00	1.010710e+00	1.011077e+00	1.011099e+00	1.010332e+00	9.993399e-01	9.993435e-01	9.993436e-01	9.993442e-01	9.993415e-01	9.993395e-01	9.993370e-01	9.993341e-01	9.993304e-01	9.993257e-01	9.993224e-01	9.993197e-01	9.993193e-01	9.993187e-01	9.993183e-01	9.993176e-01	9.993166e-01	9.993161e-01	9.993147e-01	9.993117e-01	9.993079e-01	9.993033e-01	9.992991e-01	9.992936e-01	9.992887e-01	9.992844e-01	9.992793e-01	9.992732e-01	9.992661e-01	9.992586e-01	9.992515e-01	9.992457e-01	9.992405e-01	9.992353e-01	9.992289e-01	9.992214e-01	9.992132e-01	9.992044e-01	9.991947e-01	9.991834e-01	9.991708e-01	9.991588e-01	9.991497e-01	9.991440e-01	9.991391e-01	9.991456e-01	9.992438e-01	9.996830e-01	1.000998e+00	1.003792e+00	1.007853e+00	1.011848e+00	1.014559e+00	1.015821e+00	1.016165e+00	1.016161e+00	1.015901e+00	1.014732e+00	1.012154e+00	1.008488e+00	1.004481e+00	1.000704e+00	9.974240e-01	9.947419e-01	9.926980e-01	9.913022e-01	9.904983e-01	9.901372e-01	9.900173e-01	9.899777e-01	9.900540e-01	9.905143e-01	9.914349e-01	9.925110e-01	9.934463e-01	9.941492e-01	9.946444e-01	9.949784e-01	9.951846e-01	9.952800e-01	9.952727e-01	9.951676e-01	9.949676e-01	9.946682e-01	9.942542e-01	9.937068e-01	9.930545e-01	9.925160e-01	9.926902e-01	9.944524e-01	9.979879e-01	1.002030e+00	1.005072e+00	1.006739e+00	1.007611e+00	1.008499e+00	1.009785e+00	1.011010e+00	1.011597e+00	1.011777e+00	1.011101e+00	9.993336e-01	9.993354e-01	9.993360e-01	9.993368e-01	9.993341e-01	9.993324e-01	9.993307e-01	9.993290e-01	9.993260e-01	9.993221e-01	9.993187e-01	9.993167e-01	9.993153e-01	9.993157e-01	9.993157e-01	9.993154e-01	9.993145e-01	9.993135e-01	9.993112e-01	9.993076e-01	9.993030e-01	9.992983e-01	9.992940e-01	9.992893e-01	9.992851e-01	9.992811e-01	9.992762e-01	9.992700e-01	9.992626e-01	9.992554e-01	9.992487e-01	9.992430e-01	9.992373e-01	9.992312e-01	9.992242e-01	9.992163e-01	9.992079e-01	9.991991e-01	9.991891e-01	9.991775e-01	9.991645e-01	9.991524e-01	9.991431e-01	9.991368e-01	9.991311e-01	9.991405e-01	9.992548e-01	9.997236e-01	1.001045e+00	1.003743e+00	1.007610e+00	1.011460e+00	1.014150e+00	1.015460e+00	1.015845e+00	1.015856e+00	1.015650e+00	1.014651e+00	1.012300e+00	1.008800e+00	1.004878e+00	1.001132e+00	9.978578e-01	9.951622e-01	9.930819e-01	9.916213e-01	9.907341e-01	9.902971e-01	9.901329e-01	9.900745e-01	9.900896e-01	9.904023e-01	9.911959e-01	9.922505e-01	9.932272e-01	9.939805e-01	9.945154e-01	9.948759e-01	9.950975e-01	9.951996e-01	9.951914e-01	9.950789e-01	9.948661e-01	9.945486e-01	9.941100e-01	9.935326e-01	9.928566e-01	9.923249e-01	9.925537e-01	9.943708e-01	9.978467e-01	1.001765e+00	1.004780e+00	1.006541e+00	1.007536e+00	1.008524e+00	1.009914e+00	1.011318e+00	1.012135e+00	1.012484e+00	1.011914e+00	9.993272e-01	9.993270e-01	9.993289e-01	9.993297e-01	9.993267e-01	9.993250e-01	9.993239e-01	9.993233e-01	9.993219e-01	9.993191e-01	9.993164e-01	9.993149e-01	9.993138e-01	9.993132e-01	9.993138e-01	9.993136e-01	9.993122e-01	9.993102e-01	9.993068e-01	9.993020e-01	9.992965e-01	9.992921e-01	9.992886e-01	9.992850e-01	9.992815e-01	9.992777e-01	9.992723e-01	9.992658e-01	9.992591e-01	9.992521e-01	9.992460e-01	9.992399e-01	9.992332e-01	9.992263e-01	9.992186e-01	9.992107e-01	9.992027e-01	9.991941e-01	9.991842e-01	9.991723e-01	9.991592e-01	9.991468e-01	9.991367e-01	9.991288e-01	9.991218e-01	9.991386e-01	9.992724e-01	9.997703e-01	1.001097e+00	1.003697e+00	1.007363e+00	1.011049e+00	1.013709e+00	1.015069e+00	1.015503e+00	1.015533e+00	1.015378e+00	1.014547e+00	1.012435e+00	1.009126e+00	1.005305e+00	1.001600e+00	9.983316e-01	9.956170e-01	9.934935e-01	9.919647e-01	9.909925e-01	9.904748e-01	9.902557e-01	9.901768e-01	9.901481e-01	9.903274e-01	9.909665e-01	9.919678e-01	9.929790e-01	9.937881e-01	9.943688e-01	9.947604e-01	9.949999e-01	9.951094e-01	9.951008e-01	9.949811e-01	9.947544e-01	9.944157e-01	9.939481e-01	9.933358e-01	9.926345e-01	9.921207e-01	9.924368e-01	9.943291e-01	9.977229e-01	1.001484e+00	1.004466e+00	1.006328e+00	1.007466e+00	1.008561e+00	1.010051e+00	1.011634e+00	1.012694e+00	1.013228e+00	1.012781e+00	9.993219e-01	9.993204e-01	9.993243e-01	9.993243e-01	9.993207e-01	9.993189e-01	9.993182e-01	9.993186e-01	9.993185e-01	9.993170e-01	9.993153e-01	9.993139e-01	9.993134e-01	9.993125e-01	9.993111e-01	9.993114e-01	9.993099e-01	9.993069e-01	9.993022e-01	9.992963e-01	9.992902e-01	9.992864e-01	9.992840e-01	9.992815e-01	9.992784e-01	9.992743e-01	9.992688e-01	9.992621e-01	9.992555e-01	9.992492e-01	9.992430e-01	9.992362e-01	9.992291e-01	9.992216e-01	9.992137e-01	9.992061e-01	9.991985e-01	9.991903e-01	9.991807e-01	9.991689e-01	9.991556e-01	9.991427e-01	9.991315e-01	9.991210e-01	9.991148e-01	9.991420e-01	9.992964e-01	9.998236e-01	1.001155e+00	1.003658e+00	1.007120e+00	1.010628e+00	1.013240e+00	1.014644e+00	1.015132e+00	1.015187e+00	1.015078e+00	1.014409e+00	1.012550e+00	1.009460e+00	1.005764e+00	1.002112e+00	9.988530e-01	9.961182e-01	9.939448e-01	9.923384e-01	9.912724e-01	9.906664e-01	9.903850e-01	9.902761e-01	9.902228e-01	9.902943e-01	9.907652e-01	9.916755e-01	9.927081e-01	9.935767e-01	9.942089e-01	9.946346e-01	9.948932e-01	9.950103e-01	9.950012e-01	9.948741e-01	9.946332e-01	9.942721e-01	9.937724e-01	9.931208e-01	9.923924e-01	9.919148e-01	9.923588e-01	9.943327e-01	9.976139e-01	1.001193e+00	1.004132e+00	1.006097e+00	1.007393e+00	1.008609e+00	1.010201e+00	1.011957e+00	1.013268e+00	1.014010e+00	1.013702e+00	9.993196e-01	9.993168e-01	9.993207e-01	9.993215e-01	9.993175e-01	9.993157e-01	9.993152e-01	9.993159e-01	9.993167e-01	9.993160e-01	9.993149e-01	9.993138e-01	9.993129e-01	9.993121e-01	9.993110e-01	9.993085e-01	9.993075e-01	9.993037e-01	9.992984