# vtk DataFile Version 3.0
vtk output
ASCII
DATASET STRUCTURED_GRID
DIMENSIONS 101 101 1
POINTS 10201 double
0.000000e+00	0.000000e+00	0.0	1.000000e-02	0.000000e+00	0.0	2.000000e-02	0.000000e+00	0.0	3.000000e-02	0.000000e+00	0.0	4.000000e-02	0.000000e+00	0.0	5.000000e-02	0.000000e+00	0.0	6.000000e-02	0.000000e+00	0.0	7.000000e-02	0.000000e+00	0.0	8.000000e-02	0.000000e+00	0.0	9.000000e-02	0.000000e+00	0.0	1.000000e-01	0.000000e+00	0.0	1.100000e-01	0.000000e+00	0.0	1.200000e-01	0.000000e+00	0.0	1.300000e-01	0.000000e+00	0.0	1.400000e-01	0.000000e+00	0.0	1.500000e-01	0.000000e+00	0.0	1.600000e-01	0.000000e+00	0.0	1.700000e-01	0.000000e+00	0.0	1.800000e-01	0.000000e+00	0.0	1.900000e-01	0.000000e+00	0.0	2.000000e-01	0.000000e+00	0.0	2.100000e-01	0.000000e+00	0.0	2.200000e-01	0.000000e+00	0.0	2.300000e-01	0.000000e+00	0.0	2.400000e-01	0.000000e+00	0.0	2.500000e-01	0.000000e+00	0.0	2.600000e-01	0.000000e+00	0.0	2.700000e-01	0.000000e+00	0.0	2.800000e-01	0.000000e+00	0.0	2.900000e-01	0.000000e+00	0.0	3.000000e-01	0.000000e+00	0.0	3.100000e-01	0.000000e+00	0.0	3.200000e-01	0.000000e+00	0.0	3.300000e-01	0.000000e+00	0.0	3.400000e-01	0.000000e+00	0.0	3.500000e-01	0.000000e+00	0.0	3.600000e-01	0.000000e+00	0.0	3.700000e-01	0.000000e+00	0.0	3.800000e-01	0.000000e+00	0.0	3.900000e-01	0.000000e+00	0.0	4.000000e-01	0.000000e+00	0.0	4.100000e-01	0.000000e+00	0.0	4.200000e-01	0.000000e+00	0.0	4.300000e-01	0.000000e+00	0.0	4.400000e-01	0.000000e+00	0.0	4.500000e-01	0.000000e+00	0.0	4.600000e-01	0.000000e+00	0.0	4.700000e-01	0.000000e+00	0.0	4.800000e-01	0.000000e+00	0.0	4.900000e-01	0.000000e+00	0.0	5.000000e-01	0.000000e+00	0.0	5.100000e-01	0.000000e+00	0.0	5.200000e-01	0.000000e+00	0.0	5.300000e-01	0.000000e+00	0.0	5.400000e-01	0.000000e+00	0.0	5.500000e-01	0.000000e+00	0.0	5.600000e-01	0.000000e+00	0.0	5.700000e-01	0.000000e+00	0.0	5.800000e-01	0.000000e+00	0.0	5.900000e-01	0.000000e+00	0.0	6.000000e-01	0.000000e+00	0.0	6.100000e-01	0.000000e+00	0.0	6.200000e-01	0.000000e+00	0.0	6.300000e-01	0.000000e+00	0.0	6.400000e-01	0.000000e+00	0.0	6.500000e-01	0.000000e+00	0.0	6.600000e-01	0.000000e+00	0.0	6.700000e-01	0.000000e+00	0.0	6.800000e-01	0.000000e+00	0.0	6.900000e-01	0.000000e+00	0.0	7.000000e-01	0.000000e+00	0.0	7.100000e-01	0.000000e+00	0.0	7.200000e-01	0.000000e+00	0.0	7.300000e-01	0.000000e+00	0.0	7.400000e-01	0.000000e+00	0.0	7.500000e-01	0.000000e+00	0.0	7.600000e-01	0.000000e+00	0.0	7.700000e-01	0.000000e+00	0.0	7.800000e-01	0.000000e+00	0.0	7.900000e-01	0.000000e+00	0.0	8.000000e-01	0.000000e+00	0.0	8.100000e-01	0.000000e+00	0.0	8.200000e-01	0.000000e+00	0.0	8.300000e-01	0.000000e+00	0.0	8.400000e-01	0.000000e+00	0.0	8.500000e-01	0.000000e+00	0.0	8.600000e-01	0.000000e+00	0.0	8.700000e-01	0.000000e+00	0.0	8.800000e-01	0.000000e+00	0.0	8.900000e-01	0.000000e+00	0.0	9.000000e-01	0.000000e+00	0.0	9.100000e-01	0.000000e+00	0.0	9.200000e-01	0.000000e+00	0.0	9.300000e-01	0.000000e+00	0.0	9.400000e-01	0.000000e+00	0.0	9.500000e-01	0.000000e+00	0.0	9.600000e-01	0.000000e+00	0.0	9.700000e-01	0.000000e+00	0.0	9.800000e-01	0.000000e+00	0.0	9.900000e-01	0.000000e+00	0.0	1.000000e+00	0.000000e+00	0.0	0.000000e+00	1.000000e-02	0.0	1.000000e-02	1.000000e-02	0.0	2.000000e-02	1.000000e-02	0.0	3.000000e-02	1.000000e-02	0.0	4.000000e-02	1.000000e-02	0.0	5.000000e-02	1.000000e-02	0.0	6.000000e-02	1.000000e-02	0.0	7.000000e-02	1.000000e-02	0.0	8.000000e-02	1.000000e-02	0.0	9.000000e-02	1.000000e-02	0.0	1.000000e-01	1.000000e-02	0.0	1.100000e-01	1.000000e-02	0.0	1.200000e-01	1.000000e-02	0.0	1.300000e-01	1.000000e-02	0.0	1.400000e-01	1.000000e-02	0.0	1.500000e-01	1.000000e-02	0.0	1.600000e-01	1.000000e-02	0.0	1.700000e-01	1.000000e-02	0.0	1.800000e-01	1.000000e-02	0.0	1.900000e-01	1.000000e-02	0.0	2.000000e-01	1.000000e-02	0.0	2.100000e-01	1.000000e-02	0.0	2.200000e-01	1.000000e-02	0.0	2.300000e-01	1.000000e-02	0.0	2.400000e-01	1.000000e-02	0.0	2.500000e-01	1.000000e-02	0.0	2.600000e-01	1.000000e-02	0.0	2.700000e-01	1.000000e-02	0.0	2.800000e-01	1.000000e-02	0.0	2.900000e-01	1.000000e-02	0.0	3.000000e-01	1.000000e-02	0.0	3.100000e-01	1.000000e-02	0.0	3.200000e-01	1.000000e-02	0.0	3.300000e-01	1.000000e-02	0.0	3.400000e-01	1.000000e-02	0.0	3.500000e-01	1.000000e-02	0.0	3.600000e-01	1.000000e-02	0.0	3.700000e-01	1.000000e-02	0.0	3.800000e-01	1.000000e-02	0.0	3.900000e-01	1.000000e-02	0.0	4.000000e-01	1.000000e-02	0.0	4.100000e-01	1.000000e-02	0.0	4.200000e-01	1.000000e-02	0.0	4.300000e-01	1.000000e-02	0.0	4.400000e-01	1.000000e-02	0.0	4.500000e-01	1.000000e-02	0.0	4.600000e-01	1.000000e-02	0.0	4.700000e-01	1.000000e-02	0.0	4.800000e-01	1.000000e-02	0.0	4.900000e-01	1.000000e-02	0.0	5.000000e-01	1.000000e-02	0.0	5.100000e-01	1.000000e-02	0.0	5.200000e-01	1.000000e-02	0.0	5.300000e-01	1.000000e-02	0.0	5.400000e-01	1.000000e-02	0.0	5.500000e-01	1.000000e-02	0.0	5.600000e-01	1.000000e-02	0.0	5.700000e-01	1.000000e-02	0.0	5.800000e-01	1.000000e-02	0.0	5.900000e-01	1.000000e-02	0.0	6.000000e-01	1.000000e-02	0.0	6.100000e-01	1.000000e-02	0.0	6.200000e-01	1.000000e-02	0.0	6.300000e-01	1.000000e-02	0.0	6.400000e-01	1.000000e-02	0.0	6.500000e-01	1.000000e-02	0.0	6.600000e-01	1.000000e-02	0.0	6.700000e-01	1.000000e-02	0.0	6.800000e-01	1.000000e-02	0.0	6.900000e-01	1.000000e-02	0.0	7.000000e-01	1.000000e-02	0.0	7.100000e-01	1.000000e-02	0.0	7.200000e-01	1.000000e-02	0.0	7.300000e-01	1.000000e-02	0.0	7.400000e-01	1.000000e-02	0.0	7.500000e-01	1.000000e-02	0.0	7.600000e-01	1.000000e-02	0.0	7.700000e-01	1.000000e-02	0.0	7.800000e-01	1.000000e-02	0.0	7.900000e-01	1.000000e-02	0.0	8.000000e-01	1.000000e-02	0.0	8.100000e-01	1.000000e-02	0.0	8.200000e-01	1.000000e-02	0.0	8.300000e-01	1.000000e-02	0.0	8.400000e-01	1.000000e-02	0.0	8.500000e-01	1.000000e-02	0.0	8.600000e-01	1.000000e-02	0.0	8.700000e-01	1.000000e-02	0.0	8.800000e-01	1.000000e-02	0.0	8.900000e-01	1.000000e-02	0.0	9.000000e-01	1.000000e-02	0.0	9.100000e-01	1.000000e-02	0.0	9.200000e-01	1.000000e-02	0.0	9.300000e-01	1.000000e-02	0.0	9.400000e-01	1.000000e-02	0.0	9.500000e-01	1.000000e-02	0.0	9.600000e-01	1.000000e-02	0.0	9.700000e-01	1.000000e-02	0.0	9.800000e-01	1.000000e-02	0.0	9.900000e-01	1.000000e-02	0.0	1.000000e+00	1.000000e-02	0.0	0.000000e+00	2.000000e-02	0.0	1.000000e-02	2.000000e-02	0.0	2.000000e-02	2.000000e-02	0.0	3.000000e-02	2.000000e-02	0.0	4.000000e-02	2.000000e-02	0.0	5.000000e-02	2.000000e-02	0.0	6.000000e-02	2.000000e-02	0.0	7.000000e-02	2.000000e-02	0.0	8.000000e-02	2.000000e-02	0.0	9.000000e-02	2.000000e-02	0.0	1.000000e-01	2.000000e-02	0.0	1.100000e-01	2.000000e-02	0.0	1.200000e-01	2.000000e-02	0.0	1.300000e-01	2.000000e-02	0.0	1.400000e-01	2.000000e-02	0.0	1.500000e-01	2.000000e-02	0.0	1.600000e-01	2.000000e-02	0.0	1.700000e-01	2.000000e-02	0.0	1.800000e-01	2.000000e-02	0.0	1.900000e-01	2.000000e-02	0.0	2.000000e-01	2.000000e-02	0.0	2.100000e-01	2.000000e-02	0.0	2.200000e-01	2.000000e-02	0.0	2.300000e-01	2.000000e-02	0.0	2.400000e-01	2.000000e-02	0.0	2.500000e-01	2.000000e-02	0.0	2.600000e-01	2.000000e-02	0.0	2.700000e-01	2.000000e-02	0.0	2.800000e-01	2.000000e-02	0.0	2.900000e-01	2.000000e-02	0.0	3.000000e-01	2.000000e-02	0.0	3.100000e-01	2.000000e-02	0.0	3.200000e-01	2.000000e-02	0.0	3.300000e-01	2.000000e-02	0.0	3.400000e-01	2.000000e-02	0.0	3.500000e-01	2.000000e-02	0.0	3.600000e-01	2.000000e-02	0.0	3.700000e-01	2.000000e-02	0.0	3.800000e-01	2.000000e-02	0.0	3.900000e-01	2.000000e-02	0.0	4.000000e-01	2.000000e-02	0.0	4.100000e-01	2.000000e-02	0.0	4.200000e-01	2.000000e-02	0.0	4.300000e-01	2.000000e-02	0.0	4.400000e-01	2.000000e-02	0.0	4.500000e-01	2.000000e-02	0.0	4.600000e-01	2.000000e-02	0.0	4.700000e-01	2.000000e-02	0.0	4.800000e-01	2.000000e-02	0.0	4.900000e-01	2.000000e-02	0.0	5.000000e-01	2.000000e-02	0.0	5.100000e-01	2.000000e-02	0.0	5.200000e-01	2.000000e-02	0.0	5.300000e-01	2.000000e-02	0.0	5.400000e-01	2.000000e-02	0.0	5.500000e-01	2.000000e-02	0.0	5.600000e-01	2.000000e-02	0.0	5.700000e-01	2.000000e-02	0.0	5.800000e-01	2.000000e-02	0.0	5.900000e-01	2.000000e-02	0.0	6.000000e-01	2.000000e-02	0.0	6.100000e-01	2.000000e-02	0.0	6.200000e-01	2.000000e-02	0.0	6.300000e-01	2.000000e-02	0.0	6.400000e-01	2.000000e-02	0.0	6.500000e-01	2.000000e-02	0.0	6.600000e-01	2.000000e-02	0.0	6.700000e-01	2.000000e-02	0.0	6.800000e-01	2.000000e-02	0.0	6.900000e-01	2.000000e-02	0.0	7.000000e-01	2.000000e-02	0.0	7.100000e-01	2.000000e-02	0.0	7.200000e-01	2.000000e-02	0.0	7.300000e-01	2.000000e-02	0.0	7.400000e-01	2.000000e-02	0.0	7.500000e-01	2.000000e-02	0.0	7.600000e-01	2.000000e-02	0.0	7.700000e-01	2.000000e-02	0.0	7.800000e-01	2.000000e-02	0.0	7.900000e-01	2.000000e-02	0.0	8.000000e-01	2.000000e-02	0.0	8.100000e-01	2.000000e-02	0.0	8.200000e-01	2.000000e-02	0.0	8.300000e-01	2.000000e-02	0.0	8.400000e-01	2.000000e-02	0.0	8.500000e-01	2.000000e-02	0.0	8.600000e-01	2.000000e-02	0.0	8.700000e-01	2.000000e-02	0.0	8.800000e-01	2.000000e-02	0.0	8.900000e-01	2.000000e-02	0.0	9.000000e-01	2.000000e-02	0.0	9.100000e-01	2.000000e-02	0.0	9.200000e-01	2.000000e-02	0.0	9.300000e-01	2.000000e-02	0.0	9.400000e-01	2.000000e-02	0.0	9.500000e-01	2.000000e-02	0.0	9.600000e-01	2.000000e-02	0.0	9.700000e-01	2.000000e-02	0.0	9.800000e-01	2.000000e-02	0.0	9.900000e-01	2.000000e-02	0.0	1.000000e+00	2.000000e-02	0.0	0.000000e+00	3.000000e-02	0.0	1.000000e-02	3.000000e-02	0.0	2.000000e-02	3.000000e-02	0.0	3.000000e-02	3.000000e-02	0.0	4.000000e-02	3.000000e-02	0.0	5.000000e-02	3.000000e-02	0.0	6.000000e-02	3.000000e-02	0.0	7.000000e-02	3.000000e-02	0.0	8.000000e-02	3.000000e-02	0.0	9.000000e-02	3.000000e-02	0.0	1.000000e-01	3.000000e-02	0.0	1.100000e-01	3.000000e-02	0.0	1.200000e-01	3.000000e-02	0.0	1.300000e-01	3.000000e-02	0.0	1.400000e-01	3.000000e-02	0.0	1.500000e-01	3.000000e-02	0.0	1.600000e-01	3.000000e-02	0.0	1.700000e-01	3.000000e-02	0.0	1.800000e-01	3.000000e-02	0.0	1.900000e-01	3.000000e-02	0.0	2.000000e-01	3.000000e-02	0.0	2.100000e-01	3.000000e-02	0.0	2.200000e-01	3.000000e-02	0.0	2.300000e-01	3.000000e-02	0.0	2.400000e-01	3.000000e-02	0.0	2.500000e-01	3.000000e-02	0.0	2.600000e-01	3.000000
[...]
POINT_DATA 10201

SCALARS Height double 1
LOOKUP_TABLE default
9.985906e-01	9.985999e-01	9.986095e-01	9.986069e-01	9.986082e-01	9.986097e-01	9.986127e-01	9.986138e-01	9.986149e-01	9.986144e-01	9.986073e-01	9.985931e-01	9.985739e-01	9.985536e-01	9.985346e-01	9.985185e-01	9.985062e-01	9.984974e-01	9.984900e-01	9.984816e-01	9.984688e-01	9.984477e-01	9.984221e-01	9.983943e-01	9.983670e-01	9.983389e-01	9.983091e-01	9.982776e-01	9.982441e-01	9.982080e-01	9.981685e-01	9.981250e-01	9.980774e-01	9.980250e-01	9.979675e-01	9.979050e-01	9.978374e-01	9.977640e-01	9.976848e-01	9.975989e-01	9.975044e-01	9.973997e-01	9.972830e-01	9.971529e-01	9.970085e-01	9.968480e-01	9.966682e-01	9.964620e-01	9.962151e-01	9.959020e-01	9.954810e-01	9.948900e-01	9.940501e-01	9.928931e-01	9.914289e-01	9.898194e-01	9.883698e-01	9.873579e-01	9.868373e-01	9.866950e-01	9.868582e-01	9.877991e-01	9.899871e-01	9.934943e-01	9.980962e-01	1.003424e+00	1.009064e+00	1.014512e+00	1.019097e+00	1.022204e+00	1.023760e+00	1.024113e+00	1.023389e+00	1.020102e+00	1.013785e+00	1.006687e+00	1.001703e+00	9.992932e-01	9.983965e-01	9.981149e-01	9.980480e-01	9.980938e-01	9.983416e-01	9.991671e-01	1.001450e+00	1.006254e+00	1.013074e+00	1.019005e+00	1.021810e+00	1.022116e+00	1.021269e+00	1.018921e+00	1.014714e+00	1.008803e+00	1.001826e+00	9.945428e-01	9.877194e-01	9.820846e-01	9.781146e-01	9.760778e-01	9.751033e-01	9.986033e-01	9.986033e-01	9.986139e-01	9.986114e-01	9.986113e-01	9.986115e-01	9.986135e-01	9.986149e-01	9.986180e-01	9.986169e-01	9.986086e-01	9.985929e-01	9.985723e-01	9.985502e-01	9.985296e-01	9.985119e-01	9.984975e-01	9.984867e-01	9.984766e-01	9.984652e-01	9.984521e-01	9.984310e-01	9.984084e-01	9.983847e-01	9.983583e-01	9.983339e-01	9.983061e-01	9.982760e-01	9.982428e-01	9.982068e-01	9.981672e-01	9.981237e-01	9.980761e-01	9.980236e-01	9.979660e-01	9.979031e-01	9.978348e-01	9.977610e-01	9.976812e-01	9.975944e-01	9.974990e-01	9.973934e-01	9.972759e-01	9.971450e-01	9.969996e-01	9.968378e-01	9.966561e-01	9.964476e-01	9.961984e-01	9.958829e-01	9.954594e-01	9.948658e-01	9.940242e-01	9.928668e-01	9.913996e-01	9.897754e-01	9.882865e-01	9.872291e-01	9.867505e-01	9.866738e-01	9.868520e-01	9.877734e-01	9.899262e-01	9.934425e-01	9.980693e-01	1.003434e+00	1.009102e+00	1.014579e+00	1.019268e+00	1.022539e+00	1.023955e+00	1.024104e+00	1.023407e+00	1.020349e+00	1.014145e+00	1.006740e+00	1.001438e+00	9.990435e-01	9.982725e-01	9.980645e-01	9.980152e-01	9.980394e-01	9.982132e-01	9.989157e-01	1.001187e+00	1.006316e+00	1.013449e+00	1.019233e+00	1.021825e+00	1.022094e+00	1.021489e+00	1.019241e+00	1.014850e+00	1.008848e+00	1.001833e+00	9.944927e-01	9.876036e-01	9.818982e-01	9.780032e-01	9.760625e-01	9.750938e-01	9.986126e-01	9.986123e-01	9.986246e-01	9.986202e-01	9.986191e-01	9.986183e-01	9.986186e-01	9.986181e-01	9.986183e-01	9.986159e-01	9.986072e-01	9.985917e-01	9.985719e-01	9.985510e-01	9.985303e-01	9.985119e-01	9.984975e-01	9.984878e-01	9.984773e-01	9.984663e-01	9.984531e-01	9.984329e-01	9.984096e-01	9.983826e-01	9.983561e-01	9.983281e-01	9.983018e-01	9.982719e-01	9.982394e-01	9.982035e-01	9.981643e-01	9.981213e-01	9.980740e-01	9.980223e-01	9.979655e-01	9.979037e-01	9.978366e-01	9.977638e-01	9.976847e-01	9.975985e-01	9.975037e-01	9.973992e-01	9.972827e-01	9.971530e-01	9.970081e-01	9.968457e-01	9.966623e-01	9.964506e-01	9.961970e-01	9.958758e-01	9.954441e-01	9.948404e-01	9.939917e-01	9.928415e-01	9.914010e-01	9.898060e-01	9.883174e-01	9.872768e-01	9.868729e-01	9.868248e-01	9.870338e-01	9.879686e-01	9.900918e-01	9.935616e-01	9.981505e-01	1.003447e+00	1.009026e+00	1.014453e+00	1.019216e+00	1.022491e+00	1.023676e+00	1.023771e+00	1.023076e+00	1.020226e+00	1.014328e+00	1.006978e+00	1.001488e+00	9.989935e-01	9.982327e-01	9.980462e-01	9.980019e-01	9.980167e-01	9.981649e-01	9.988491e-01	1.001216e+00	1.006549e+00	1.013630e+00	1.019102e+00	1.021483e+00	1.021755e+00	1.021193e+00	1.019155e+00	1.014746e+00	1.008695e+00	1.001754e+00	9.945178e-01	9.877009e-01	9.820753e-01	9.782832e-01	9.763708e-01	9.753819e-01	9.986106e-01	9.986112e-01	9.986217e-01	9.986172e-01	9.986157e-01	9.986144e-01	9.986140e-01	9.986131e-01	9.986133e-01	9.986111e-01	9.986022e-01	9.985870e-01	9.985679e-01	9.985485e-01	9.985306e-01	9.985131e-01	9.984993e-01	9.984878e-01	9.984783e-01	9.984674e-01	9.984539e-01	9.984342e-01	9.984101e-01	9.983834e-01	9.983562e-01	9.983292e-01	9.983011e-01	9.982705e-01	9.982372e-01	9.982006e-01	9.981605e-01	9.981166e-01	9.980686e-01	9.980163e-01	9.979592e-01	9.978971e-01	9.978297e-01	9.977567e-01	9.976772e-01	9.975905e-01	9.974953e-01	9.973904e-01	9.972740e-01	9.971440e-01	9.969982e-01	9.968337e-01	9.966468e-01	9.964300e-01	9.961687e-01	9.958374e-01	9.953915e-01	9.947692e-01	9.939013e-01	9.927423e-01	9.913093e-01	9.897200e-01	9.882407e-01	9.872856e-01	9.869860e-01	9.869647e-01	9.872088e-01	9.881911e-01	9.903507e-01	9.938112e-01	9.983664e-01	1.003594e+00	1.009100e+00	1.014537e+00	1.019345e+00	1.022427e+00	1.023396e+00	1.023448e+00	1.022749e+00	1.020005e+00	1.014305e+00	1.007080e+00	1.001559e+00	9.990105e-01	9.982284e-01	9.980362e-01	9.979896e-01	9.979997e-01	9.981408e-01	9.988311e-01	1.001256e+00	1.006649e+00	1.013610e+00	1.018862e+00	1.021131e+00	1.021400e+00	1.020887e+00	1.019058e+00	1.014784e+00	1.008676e+00	1.001747e+00	9.946009e-01	9.878671e-01	9.823191e-01	9.786291e-01	9.767200e-01	9.757014e-01	9.986130e-01	9.986133e-01	9.986226e-01	9.986175e-01	9.986148e-01	9.986121e-01	9.986105e-01	9.986082e-01	9.986072e-01	9.986039e-01	9.985947e-01	9.985797e-01	9.985618e-01	9.985439e-01	9.985268e-01	9.985107e-01	9.984969e-01	9.984841e-01	9.984751e-01	9.984642e-01	9.984503e-01	9.984322e-01	9.984064e-01	9.983801e-01	9.983530e-01	9.983261e-01	9.982973e-01	9.982659e-01	9.982320e-01	9.981950e-01	9.981541e-01	9.981092e-01	9.980604e-01	9.980074e-01	9.979499e-01	9.978877e-01	9.978203e-01	9.977473e-01	9.976679e-01	9.975812e-01	9.974861e-01	9.973811e-01	9.972646e-01	9.971340e-01	9.969866e-01	9.968195e-01	9.966284e-01	9.964053e-01	9.961348e-01	9.957885e-01	9.953228e-01	9.946754e-01	9.937832e-01	9.926091e-01	9.911724e-01	9.895816e-01	9.881649e-01	9.873646e-01	9.871583e-01	9.871514e-01	9.874452e-01	9.884923e-01	9.907019e-01	9.941682e-01	9.986637e-01	1.003803e+00	1.009252e+00	1.014720e+00	1.019448e+00	1.022225e+00	1.023020e+00	1.023045e+00	1.022339e+00	1.019672e+00	1.014164e+00	1.007144e+00	1.001699e+00	9.990985e-01	9.982547e-01	9.980344e-01	9.979786e-01	9.979883e-01	9.981405e-01	9.988668e-01	1.001342e+00	1.006694e+00	1.013471e+00	1.018519e+00	1.020690e+00	1.020949e+00	1.020453e+00	1.018824e+00	1.014787e+00	1.008719e+00	1.001779e+00	9.947008e-01	9.880924e-01	9.827060e-01	9.791212e-01	9.771991e-01	9.761452e-01	9.986137e-01	9.986138e-01	9.986218e-01	9.986165e-01	9.986126e-01	9.986086e-01	9.986060e-01	9.986037e-01	9.986012e-01	9.985973e-01	9.985876e-01	9.985724e-01	9.985550e-01	9.985380e-01	9.985220e-01	9.985069e-01	9.984932e-01	9.984797e-01	9.984718e-01	9.984604e-01	9.984461e-01	9.984286e-01	9.984021e-01	9.983768e-01	9.983495e-01	9.983232e-01	9.982938e-01	9.982619e-01	9.982273e-01	9.981896e-01	9.981482e-01	9.981029e-01	9.980532e-01	9.979990e-01	9.979405e-01	9.978774e-01	9.978095e-01	9.977362e-01	9.976566e-01	9.975698e-01	9.974744e-01	9.973688e-01	9.972512e-01	9.971188e-01	9.969688e-01	9.967982e-01	9.966022e-01	9.963718e-01	9.960895e-01	9.957242e-01	9.952320e-01	9.945549e-01	9.936351e-01	9.924367e-01	9.909739e-01	9.893947e-01	9.881104e-01	9.874926e-01	9.873533e-01	9.873739e-01	9.877340e-01	9.888727e-01	9.911515e-01	9.946198e-01	9.990380e-01	1.004089e+00	1.009516e+00	1.014974e+00	1.019494e+00	1.021947e+00	1.022579e+00	1.022580e+00	1.021850e+00	1.019214e+00	1.013894e+00	1.007176e+00	1.001882e+00	9.992323e-01	9.983063e-01	9.980393e-01	9.979674e-01	9.979793e-01	9.981586e-01	9.989546e-01	1.001479e+00	1.006691e+00	1.013197e+00	1.018059e+00	1.020175e+00	1.020434e+00	1.019938e+00	1.018480e+00	1.014731e+00	1.008814e+00	1.001863e+00	9.948254e-01	9.883925e-01	9.832459e-01	9.797533e-01	9.778013e-01	9.767006e-01	9.986127e-01	9.986125e-01	9.986186e-01	9.986134e-01	9.986088e-01	9.986040e-01	9.986011e-01	9.985988e-01	9.985959e-01	9.985907e-01	9.985804e-01	9.985653e-01	9.985485e-01	9.985322e-01	9.985168e-01	9.985018e-01	9.984880e-01	9.984753e-01	9.984664e-01	9.984543e-01	9.984402e-01	9.984223e-01	9.983962e-01	9.983710e-01	9.983434e-01	9.983171e-01	9.982873e-01	9.982550e-01	9.982200e-01	9.981819e-01	9.981400e-01	9.980942e-01	9.980438e-01	9.979886e-01	9.979290e-01	9.978650e-01	9.977964e-01	9.977229e-01	9.976430e-01	9.975560e-01	9.974602e-01	9.973536e-01	9.972341e-01	9.970992e-01	9.969462e-01	9.967719e-01	9.965706e-01	9.963312e-01	9.960336e-01	9.956459e-01	9.951198e-01	9.944021e-01	9.934443e-01	9.922108e-01	9.907187e-01	9.891939e-01	9.880987e-01	9.876585e-01	9.875795e-01	9.876370e-01	9.880845e-01	9.893385e-01	9.916965e-01	9.951582e-01	9.994907e-01	1.004459e+00	1.009879e+00	1.015250e+00	1.019469e+00	1.021593e+00	1.022077e+00	1.022049e+00	1.021274e+00	1.018642e+00	1.013523e+00	1.007178e+00	1.002106e+00	9.994155e-01	9.983825e-01	9.980524e-01	9.979574e-01	9.979735e-01	9.981937e-01	9.990795e-01	1.001649e+00	1.006653e+00	1.012802e+00	1.017482e+00	1.019579e+00	1.019846e+00	1.019344e+00	1.018005e+00	1.014579e+00	1.008905e+00	1.001996e+00	9.950137e-01	9.888022e-01	9.839285e-01	9.805190e-01	9.785281e-01	9.773721e-01	9.986062e-01	9.986080e-01	9.986120e-01	9.986073e-01	9.986020e-01	9.985975e-01	9.985948e-01	9.985931e-01	9.985901e-01	9.985843e-01	9.985734e-01	9.985588e-01	9.985429e-01	9.985273e-01	9.985123e-01	9.984979e-01	9.984839e-01	9.984714e-01	9.984601e-01	9.984491e-01	9.984349e-01	9.984144e-01	9.983893e-01	9.983640e-01	9.983370e-01	9.983094e-01	9.982789e-01	9.982459e-01	9.982104e-01	9.981720e-01	9.981296e-01	9.980832e-01	9.980322e-01	9.979762e-01	9.979159e-01	9.978509e-01	9.977816e-01	9.977073e-01	9.976270e-01	9.975393e-01	9.974422e-01	9.973336e-01	9.972113e-01	9.970731e-01	9.969166e-01	9.967382e-01	9.965306e-01	9.962803e-01	9.959646e-01	9.955477e-01	9.949843e-01	9.942231e-01	9.932141e-01	9.919231e-01	9.904147e-01	9.890070e-01	9.881433e-01	9.878623e-01	9.878320e-01	9.879470e-01	9.885069e-01	9.898961e-01	9.923348e-01	9.957761e-01	1.000028e+00	1.004939e+00	1.010315e+00	1.015513e+00	1.019368e+00	1.021150e+00	1.021514e+00	1.021452e+00	1.020611e+00	1.017967e+00	1.013076e+00	1.007159e+00	1.002359e+00	9.996413e-01	9.984852e-01	9.980750e-01	9.979506e-01	9.979720e-01	9.982453e-01	9.992406e-01	1.001845e+00	1.006587e+00	1.012318e+00	1.016789e+00	1.018885e+00	1.019176e+00	1.018671e+00	1.017436e+00	1.014328e+00	1.008932e+00	1.002157e+00	9.953006e-01	9.893508e-01	9.847491e-01	9.814093e-01	9.793819e-01	9.781698e-01	9.985999e-01	9.986045e-01	9.986047e-01	9.986009e-01	9.985952e-01	9.985904e-01	9.985880e-01	9.985861e-01	9.985822e-01	9.985753e-01	9.985643e-01	9.985505e-01	9.985357e-01	9.985210e-01	9.985063e-01	9.984920e-01	9.984785e-01	9.984659e-01	9.984546e-01	9.984434e-01	9.984280e-01	9.984075e-01	9.983832e-01	9.983561e-01	9.983303e-01	9.983006e-01	9.982694e-01	9.982359e-01	9.981997e-01	9.981603e-01	9.981173e-01	9.980701e-01	9.980186e-01	9.979618e-01	9.979010e-01	9.978356e-01	9.977656e-01	9.976905e-01	9.976094e-01	9.975204e-01	9.974214e-01	9.973101e-01	9.971843e-01	9.970421e-01	9.968813e-01	9.966975e-01	9.964816e-01	9.962171e-01	9.958779e-01	9.954270e-01	9.948192e-01	9.940049e-01	9.929311e-01	9.915781e-01	9.900850e-01	9.888563e-01	9.882485e-01	9.881062e-01	9.881122e-01	9.883066e-01	9.890102e-01	9.905488e-01	9.930629e-01	9.964752e-01	1.000654e+00	1.005508e+00	1.010791e+00	1.015740e+00	1.019183e+00	1.020639e+00	1.020890e+00	1.020783e+00	1.019864e+00	1.017208e+00	1.012574e+00	1.007127e+00	1.002631e+00	9.999010e-01	9.986120e-01	9.981072e-01	9.979469e-01	9.979765e-01	9.983161e-01	9.994311e-01	1.002058e+00	1.006505e+00	1.011773e+00	1.015994e+00	1.018084e+00	1.018418e+00	1.017911e+00	1.016766e+00	1.013934e+00	1.008860e+00	1.002324e+00	9.957074e-01	9.900630e-01	9.857094e-01	9.824192e-01	9.803723e-01	9.791000e-01	9.985949e-01	9.985987e-01	9.985969e-01	9.985943e-01	9.985884e-01	9.985841e-01	9.985814e-01	9.985790e-01	9.985736e-01	9.985655e-01	9.985546e-01	9.985414e-01	9.985275e-01	9.985129e-01	9.984986e-01	9.984842e-01	9.984704e-01	9.984586e-01	9.984461e-01	9.984337e-01	9.984190e-01	9.983983e-01	9.983738e-01	9.983496e-01	9.983212e-01	9.982921e-01	9.982605e-01	9.982262e-01	9.981892e-01	9.981485e-01	9.981040e-01	9.980556e-01	9.980033e-01	9.979458e-01	9.978846e-01	9.978187e-01	9.977479e-01	9.976717e-01	9.975891e-01	9.974982e-01	9.973968e-01	9.972823e-01	9.971529e-01	9.970066e-01	9.968408e-01	9.966501e-01	9.964236e-01	9.961414e-01	9.957743e-01	9.952834e-01	9.946234e-01	9.937423e-01	9.925886e-01	9.911778e-01	9.897548e-01	9.887712e-01	9.884108e-01	9.883717e-01	9.884201e-01	9.887285e-01	9.896002e-01	9.912940e-01	9.938761e-01	9.972587e-01	1.001368e+00	1.006145e+00	1.011277e+00	1.015908e+00	1.018918e+00	1.020049e+00	1.020208e+00	1.020049e+00	1.019036e+00	1.016386e+00	1.012043e+00	1.007088e+00	1.002913e+00	1.000187e+00	9.987607e-01	9.981482e-01	9.979445e-01	9.979858e-01	9.984028e-01	9.996465e-01	1.002282e+00	1.006412e+00	1.011190e+00	1.015120e+00	1.017186e+00	1.017566e+00	1.017056e+00	1.015977e+00	1.013402e+00	1.008694e+00	1.002490e+00	9.962406e-01	9.909406e-01	9.867983e-01	9.835530e-01	9.815079e-01	9.801802e-01	9.985884e-01	9.985912e-01	9.985881e-01	9.985861e-01	9.985809e-01	9.985766e-01	9.985735e-01	9.985704e-01	9.985640e-01	9.985551e-01	9.985441e-01	9.985318e-01	9.985186e-01	9.985046e-01	9.984898e-01	9.984748e-01	9.984609e-01	9.984483e-01	9.984357e-01	9.984223e-01	9.984069e-01	9.983868e-01	9.983643e-01	9.983384e-01	9.983107e-01	9.982817e-01	9.982499e-01	9.982154e-01	9.981774e-01	9.981357e-01	9.980896e-01	9.980399e-01	9.979868e-01	9.979288e-01	9.978670e-01	9.978005e-01	9.977285e-01	9.976506e-01	9.975657e-01	9.974721e-01	9.973675e-01	9.972496e-01	9.971161e-01	9.969652e-01	9.967936e-01	9.965944e-01	9.963540e-01	9.960506e-01	9.956506e-01	9.951132e-01	9.943906e-01	9.934268e-01	9.921822e-01	9.907359e-01	9.894553e-01	9.887904e-01	9.886392e-01	9.886457e-01	9.887687e-01	9.892272e-01	9.902846e-01	9.921293e-01	9.947716e-01	9.981263e-01	1.002161e+00	1.006826e+00	1.011748e+00	1.015993e+00	1.018542e+00	1.019383e+00	1.019462e+00	1.019250e+00	1.018140e+00	1.015523e+00	1.011506e+00	1.007052e+00	1.003203e+00	1.000491e+00	9.989274e-01	9.981963e-01	9.979422e-01	9.979985e-01	9.985049e-01	9.998800e-01	1.002510e+00	1.006314e+00	1.010588e+00	1.014189e+00	1.016200e+00	1.016620e+00	1.016104e+00	1.015055e+00	1.012709e+00	1.008389e+00	1.002666e+00	9.969030e-01	9.919685e-01	9.879976e-01	9.848032e-01	9.828044e-01	9.814529e-01	9.985811e-01	9.985815e-01	9.985784e-01	9.985768e-01	9.985717e-01	9.985672e-01	9.985636e-01	9.985602e-01	9.985531e-01	9.985437e-01	9.985329e-01	9.985214e-01	9.985093e-01	9.984960e-01	9.984817e-01	9.984667e-01	9.984522e-01	9.984386e-01	9.984254e-01	9.984107e-01	9.983940e-01	9.983740e-01	9.983507e-01	9.983257e-01	9.982984e-01	9.982689e-01	9.982365e-01	9.982015e-01	9.981628e-01	9.981196e-01	9.980726e-01	9.980221e-01	9.979684e-01	9.979103e-01	9.978482e-01	9.977808e-01	9.977076e-01	9.976275e-01	9.975395e-01	9.974423e-01	9.973338e-01	9.972117e-01	9.970736e-01	9.969170e-01	9.967383e-01	9.965281e-01	9.962711e-01	9.959412e-01	9.955025e-01	9.949100e-01	9.941111e-01	9.930467e-01	9.917032e-01	9.902754e-01	9.892571e-01	9.889101e-01	9.888864e-01	9.889362e-01	9.891785e-01	9.898181e-01	9.910693e-01	9.930522e-01	9.957458e-01	9.990747e-01	1.003020e+00	1.007528e+00	1.012169e+00	1.015964e+00	1.018053e+00	1.018640e+00	1.018669e+00	1.018379e+00	1.017188e+00	1.014639e+00	1.010983e+00	1.007026e+00	1.003496e+00	1.000807e+00	9.991057e-01	9.982489e-01	9.979408e-01	9.980142e-01	9.986171e-01	1.000124e+00	1.002737e+00	1.006216e+00	1.009984e+00	1.013221e+00	1.015138e+00	1.015585e+00	1.015051e+00	1.013987e+00	1.011821e+00	1.007954e+00	1.002868e+00	9.976940e-01	9.931209e-01	9.892844e-01	9.861737e-01	9.842796e-01	9.829575e-01	9.985711e-01	9.985693e-01	9.985672e-01	9.985659e-01	9.985610e-01	9.985560e-01	9.985518e-01	9.985480e-01	9.985410e-01	9.985319e-01	9.985214e-01	9.985104e-01	9.984997e-01	9.984872e-01	9.984734e-01	9.984584e-01	9.984430e-01	9.984281e-01	9.984135e-01	9.983983e-01	9.983812e-01	9.983619e-01	9.983395e-01	9.983138e-01	9.982855e-01	9.982550e-01	9.982219e-01	9.981855e-01	9.981453e-01	9.981005e-01	9.980527e-01	9.980016e-01	9.979471e-01	9.978889e-01	9.978266e-01	9.977586e-01	9.976840e-01	9.976017e-01	9.975105e-01	9.974091e-01	9.972960e-01	9.971690e-01	9.970257e-01	9.968627e-01	9.966746e-01	9.964513e-01	9.961732e-01	9.958114e-01	9.953259e-01	9.946662e-01	9.937721e-01	9.925855e-01	9.911510e-01	9.898564e-01	9.892228e-01	9.891059e-01	9.891300e-01	9.892655e-01	9.896672e-01	9.905132e-01	9.919576e-01	9.940602e-01	9.967917e-01	1.000094e+00	1.003933e+00	1.008221e+00	1.012504e+00	1.015804e+00	1.017446e+00	1.017830e+00	1.017814e+00	1.017446e+00	1.016190e+00	1.013759e+00	1.010495e+00	1.007021e+00	1.003791e+00	1.001126e+00	9.992881e-01	9.983034e-01	9.979398e-01	9.980317e-01	9.987344e-01	1.000370e+00	1.002960e+00	1.006126e+00	1.009399e+00	1.012237e+00	1.014015e+00	1.014456e+00	1.013890e+00	1.012762e+00	1.010721e+00	1.007391e+00	1.003115e+00	9.985853e-01	9.943525e-01	9.906565e-01	9.876822e-01	9.859506e-01	9.847101e-01	9.985583e-01	9.985552e-01	9.985549e-01	9.985539e-01	9.985493e-01	9.985441e-01	9.985392e-01	9.985346e-01	9.985281e-01	9.985190e-01	9.985092e-01	9.984992e-01	9.984887e-01	9.984775e-01	9.984644e-01	9.984498e-01	9.984338e-01	9.984175e-01	9.984010e-01	9.983840e-01	9.983655e-01	9.983466e-01	9.983251e-01	9.983001e-01	9.982716e-01	9.982405e-01	9.982057e-01	9.981671e-01	9.981246e-01	9.980798e-01	9.980307e-01	9.979786e-01	9.979236e-01	9.978647e-01	9.978016e-01	9.977327e-01	9.976566e-01	9.975720e-01	9.974774e-01	9.973716e-01	9.972534e-01	9.971207e-01	9.969719e-01	9.968022e-01	9.966035e-01	9.963639e-01	9.960603e-01	9.956588e-01	9.951154e-01	9.943726e-01	9.933556e-01	9.920208e-01	9.905688e-01	9.895871e-01	9.893118e-01	9.893099e-01	9.893887e-01	9.896567e-01	9.902529e-01	9.913200e-01	9.929484e-01	9.951513e-01	9.979039e-01	1.001171e+00	1.004883e+00	1.008878e+00	1.012700e+00	1.015489e+00	1.016730e+00	1.016959e+00	1.016899e+00	1.016457e+00	1.015167e+00	1.012910e+00	1.010058e+00	1.007040e+00	1.004083e+00	1.001436e+00	9.994675e-01	9.983551e-01	9.979362e-01	9.980483e-01	9.988506e-01	1.000609e+00	1.003173e+00	1.006049e+00	1.008848e+00	1.011263e+00	1.012844e+00	1.013235e+00	1.012602e+00	1.011365e+00	1.009432e+00	1.006771e+00	1.003396e+00	9.995036e-01	9.956142e-01	9.921240e-01	9.893692e-01	9.878287e-01	9.866950e-01	9.985452e-01	9.985404e-01	9.985403e-01	9.985412e-01	9.985365e-01	9.985315e-01	9.985258e-01	9.985208e-01	9.985145e-01	9.985060e-01	9.984965e-01	9.984875e-01	9.984779e-01	9.984669e-01	9.984547e-01	9.984398e-01	9.984234e-01	9.984054e-01	9.983864e-01	9.983671e-01	9.983470e-01	9.983286e-01	9.983081e-01	9.982844e-01	9.982559e-01	9.982238e-01	9.981868e-01	9.981470e-01	9.981041e-01	9.980571e-01	9.980076e-01	9.979549e-01	9.978988e-01	9.978387e-01	9.977741e-01	9.977034e-01	9.976251e-01	9.975375e-01	9.974389e-01	9.973282e-01	9.972042e-01	9.970657e-01	9.969107e-01	9.967339e-01	9.965248e-01	9.962651e-01	9.959291e-01	9.954790e-01	9.948640e-01	9.940114e-01	9.928318e-01	9.913559e-01	9.900698e-01	9.895330e-01	9.894656e-01	9.895080e-01	9.896909e-01	9.901328e-01	9.909513e-01	9.922419e-01	9.940382e-01	9.963217e-01	9.990767e-01	1.002287e+00	1.005843e+00	1.009464e+00	1.012719e+00	1.015000e+00	1.015910e+00	1.016029e+00	1.015931e+00	1.015424e+00	1.014146e+00	1.012119e+00	1.009688e+00	1.007086e+00	1.004367e+00	1.001731e+00	9.996354e-01	9.983988e-01	9.979262e-01	9.980589e-01	9.989576e-01	1.000831e+00	1.003371e+00	1.005985e+00	1.008346e+00	1.010323e+00	1.011642e+00	1.011917e+00	1.011156e+00	1.009786e+00	1.008072e+00	1.006180e+00	1.003618e+00	1.000363e+00	9.968830e-01	9.937201e-01	9.912494e-01	9.899129e-01	9.888936e-01	9.985321e-01	9.985256e-01	9.985255e-01	9.985265e-01	9.985231e-01	9.985184e-01	9.985120e-01	9.985065e-01	9.985001e-01	9.984924e-01	9.984832e-01	9.984750e-01	9.984660e-01	9.984561e-01	9.984437e-01	9.984284e-01	9.984109e-01	9.983908e-01	9.983701