# vtk DataFile Version 3.0
vtk output
ASCII
DATASET STRUCTURED_GRID
DIMENSIONS 101 101 1
POINTS 10201 double
0.000000e+00	0.000000e+00	0.0	1.000000e-02	0.000000e+00	0.0	2.000000e-02	0.000000e+00	0.0	3.000000e-02	0.000000e+00	0.0	4.000000e-02	0.000000e+00	0.0	5.000000e-02	0.000000e+00	0.0	6.000000e-02	0.000000e+00	0.0	7.000000e-02	0.000000e+00	0.0	8.000000e-02	0.000000e+00	0.0	9.000000e-02	0.000000e+00	0.0	1.000000e-01	0.000000e+00	0.0	1.100000e-01	0.000000e+00	0.0	1.200000e-01	0.000000e+00	0.0	1.300000e-01	0.000000e+00	0.0	1.400000e-01	0.000000e+00	0.0	1.500000e-01	0.000000e+00	0.0	1.600000e-01	0.000000e+00	0.0	1.700000e-01	0.000000e+00	0.0	1.800000e-01	0.000000e+00	0.0	1.900000e-01	0.000000e+00	0.0	2.000000e-01	0.000000e+00	0.0	2.100000e-01	0.000000e+00	0.0	2.200000e-01	0.000000e+00	0.0	2.300000e-01	0.000000e+00	0.0	2.400000e-01	0.000000e+00	0.0	2.500000e-01	0.000000e+00	0.0	2.600000e-01	0.000000e+00	0.0	2.700000e-01	0.000000e+00	0.0	2.800000e-01	0.000000e+00	0.0	2.900000e-01	0.000000e+00	0.0	3.000000e-01	0.000000e+00	0.0	3.100000e-01	0.000000e+00	0.0	3.200000e-01	0.000000e+00	0.0	3.300000e-01	0.000000e+00	0.0	3.400000e-01	0.000000e+00	0.0	3.500000e-01	0.000000e+00	0.0	3.600000e-01	0.000000e+00	0.0	3.700000e-01	0.000000e+00	0.0	3.800000e-01	0.000000e+00	0.0	3.900000e-01	0.000000e+00	0.0	4.000000e-01	0.000000e+00	0.0	4.100000e-01	0.000000e+00	0.0	4.200000e-01	0.000000e+00	0.0	4.300000e-01	0.000000e+00	0.0	4.400000e-01	0.000000e+00	0.0	4.500000e-01	0.000000e+00	0.0	4.600000e-01	0.000000e+00	0.0	4.700000e-01	0.000000e+00	0.0	4.800000e-01	0.000000e+00	0.0	4.900000e-01	0.000000e+00	0.0	5.000000e-01	0.000000e+00	0.0	5.100000e-01	0.000000e+00	0.0	5.200000e-01	0.000000e+00	0.0	5.300000e-01	0.000000e+00	0.0	5.400000e-01	0.000000e+00	0.0	5.500000e-01	0.000000e+00	0.0	5.600000e-01	0.000000e+00	0.0	5.700000e-01	0.000000e+00	0.0	5.800000e-01	0.000000e+00	0.0	5.900000e-01	0.000000e+00	0.0	6.000000e-01	0.000000e+00	0.0	6.100000e-01	0.000000e+00	0.0	6.200000e-01	0.000000e+00	0.0	6.300000e-01	0.000000e+00	0.0	6.400000e-01	0.000000e+00	0.0	6.500000e-01	0.000000e+00	0.0	6.600000e-01	0.000000e+00	0.0	6.700000e-01	0.000000e+00	0.0	6.800000e-01	0.000000e+00	0.0	6.900000e-01	0.000000e+00	0.0	7.000000e-01	0.000000e+00	0.0	7.100000e-01	0.000000e+00	0.0	7.200000e-01	0.000000e+00	0.0	7.300000e-01	0.000000e+00	0.0	7.400000e-01	0.000000e+00	0.0	7.500000e-01	0.000000e+00	0.0	7.600000e-01	0.000000e+00	0.0	7.700000e-01	0.000000e+00	0.0	7.800000e-01	0.000000e+00	0.0	7.900000e-01	0.000000e+00	0.0	8.000000e-01	0.000000e+00	0.0	8.100000e-01	0.000000e+00	0.0	8.200000e-01	0.000000e+00	0.0	8.300000e-01	0.000000e+00	0.0	8.400000e-01	0.000000e+00	0.0	8.500000e-01	0.000000e+00	0.0	8.600000e-01	0.000000e+00	0.0	8.700000e-01	0.000000e+00	0.0	8.800000e-01	0.000000e+00	0.0	8.900000e-01	0.000000e+00	0.0	9.000000e-01	0.000000e+00	0.0	9.100000e-01	0.000000e+00	0.0	9.200000e-01	0.000000e+00	0.0	9.300000e-01	0.000000e+00	0.0	9.400000e-01	0.000000e+00	0.0	9.500000e-01	0.000000e+00	0.0	9.600000e-01	0.000000e+00	0.0	9.700000e-01	0.000000e+00	0.0	9.800000e-01	0.000000e+00	0.0	9.900000e-01	0.000000e+00	0.0	1.000000e+00	0.000000e+00	0.0	0.000000e+00	1.000000e-02	0.0	1.000000e-02	1.000000e-02	0.0	2.000000e-02	1.000000e-02	0.0	3.000000e-02	1.000000e-02	0.0	4.000000e-02	1.000000e-02	0.0	5.000000e-02	1.000000e-02	0.0	6.000000e-02	1.000000e-02	0.0	7.000000e-02	1.000000e-02	0.0	8.000000e-02	1.000000e-02	0.0	9.000000e-02	1.000000e-02	0.0	1.000000e-01	1.000000e-02	0.0	1.100000e-01	1.000000e-02	0.0	1.200000e-01	1.000000e-02	0.0	1.300000e-01	1.000000e-02	0.0	1.400000e-01	1.000000e-02	0.0	1.500000e-01	1.000000e-02	0.0	1.600000e-01	1.000000e-02	0.0	1.700000e-01	1.000000e-02	0.0	1.800000e-01	1.000000e-02	0.0	1.900000e-01	1.000000e-02	0.0	2.000000e-01	1.000000e-02	0.0	2.100000e-01	1.000000e-02	0.0	2.200000e-01	1.000000e-02	0.0	2.300000e-01	1.000000e-02	0.0	2.400000e-01	1.000000e-02	0.0	2.500000e-01	1.000000e-02	0.0	2.600000e-01	1.000000e-02	0.0	2.700000e-01	1.000000e-02	0.0	2.800000e-01	1.000000e-02	0.0	2.900000e-01	1.000000e-02	0.0	3.000000e-01	1.000000e-02	0.0	3.100000e-01	1.000000e-02	0.0	3.200000e-01	1.000000e-02	0.0	3.300000e-01	1.000000e-02	0.0	3.400000e-01	1.000000e-02	0.0	3.500000e-01	1.000000e-02	0.0	3.600000e-01	1.000000e-02	0.0	3.700000e-01	1.000000e-02	0.0	3.800000e-01	1.000000e-02	0.0	3.900000e-01	1.000000e-02	0.0	4.000000e-01	1.000000e-02	0.0	4.100000e-01	1.000000e-02	0.0	4.200000e-01	1.000000e-02	0.0	4.300000e-01	1.000000e-02	0.0	4.400000e-01	1.000000e-02	0.0	4.500000e-01	1.000000e-02	0.0	4.600000e-01	1.000000e-02	0.0	4.700000e-01	1.000000e-02	0.0	4.800000e-01	1.000000e-02	0.0	4.900000e-01	1.000000e-02	0.0	5.000000e-01	1.000000e-02	0.0	5.100000e-01	1.000000e-02	0.0	5.200000e-01	1.000000e-02	0.0	5.300000e-01	1.000000e-02	0.0	5.400000e-01	1.000000e-02	0.0	5.500000e-01	1.000000e-02	0.0	5.600000e-01	1.000000e-02	0.0	5.700000e-01	1.000000e-02	0.0	5.800000e-01	1.000000e-02	0.0	5.900000e-01	1.000000e-02	0.0	6.000000e-01	1.000000e-02	0.0	6.100000e-01	1.000000e-02	0.0	6.200000e-01	1.000000e-02	0.0	6.300000e-01	1.000000e-02	0.0	6.400000e-01	1.000000e-02	0.0	6.500000e-01	1.000000e-02	0.0	6.600000e-01	1.000000e-02	0.0	6.700000e-01	1.000000e-02	0.0	6.800000e-01	1.000000e-02	0.0	6.900000e-01	1.000000e-02	0.0	7.000000e-01	1.000000e-02	0.0	7.100000e-01	1.000000e-02	0.0	7.200000e-01	1.000000e-02	0.0	7.300000e-01	1.000000e-02	0.0	7.400000e-01	1.000000e-02	0.0	7.500000e-01	1.000000e-02	0.0	7.600000e-01	1.000000e-02	0.0	7.700000e-01	1.000000e-02	0.0	7.800000e-01	1.000000e-02	0.0	7.900000e-01	1.000000e-02	0.0	8.000000e-01	1.000000e-02	0.0	8.100000e-01	1.000000e-02	0.0	8.200000e-01	1.000000e-02	0.0	8.300000e-01	1.000000e-02	0.0	8.400000e-01	1.000000e-02	0.0	8.500000e-01	1.000000e-02	0.0	8.600000e-01	1.000000e-02	0.0	8.700000e-01	1.000000e-02	0.0	8.800000e-01	1.000000e-02	0.0	8.900000e-01	1.000000e-02	0.0	9.000000e-01	1.000000e-02	0.0	9.100000e-01	1.000000e-02	0.0	9.200000e-01	1.000000e-02	0.0	9.300000e-01	1.000000e-02	0.0	9.400000e-01	1.000000e-02	0.0	9.500000e-01	1.000000e-02	0.0	9.600000e-01	1.000000e-02	0.0	9.700000e-01	1.000000e-02	0.0	9.800000e-01	1.000000e-02	0.0	9.900000e-01	1.000000e-02	0.0	1.000000e+00	1.000000e-02	0.0	0.000000e+00	2.000000e-02	0.0	1.000000e-02	2.000000e-02	0.0	2.000000e-02	2.000000e-02	0.0	3.000000e-02	2.000000e-02	0.0	4.000000e-02	2.000000e-02	0.0	5.000000e-02	2.000000e-02	0.0	6.000000e-02	2.000000e-02	0.0	7.000000e-02	2.000000e-02	0.0	8.000000e-02	2.000000e-02	0.0	9.000000e-02	2.000000e-02	0.0	1.000000e-01	2.000000e-02	0.0	1.100000e-01	2.000000e-02	0.0	1.200000e-01	2.000000e-02	0.0	1.300000e-01	2.000000e-02	0.0	1.400000e-01	2.000000e-02	0.0	1.500000e-01	2.000000e-02	0.0	1.600000e-01	2.000000e-02	0.0	1.700000e-01	2.000000e-02	0.0	1.800000e-01	2.000000e-02	0.0	1.900000e-01	2.000000e-02	0.0	2.000000e-01	2.000000e-02	0.0	2.100000e-01	2.000000e-02	0.0	2.200000e-01	2.000000e-02	0.0	2.300000e-01	2.000000e-02	0.0	2.400000e-01	2.000000e-02	0.0	2.500000e-01	2.000000e-02	0.0	2.600000e-01	2.000000e-02	0.0	2.700000e-01	2.000000e-02	0.0	2.800000e-01	2.000000e-02	0.0	2.900000e-01	2.000000e-02	0.0	3.000000e-01	2.000000e-02	0.0	3.100000e-01	2.000000e-02	0.0	3.200000e-01	2.000000e-02	0.0	3.300000e-01	2.000000e-02	0.0	3.400000e-01	2.000000e-02	0.0	3.500000e-01	2.000000e-02	0.0	3.600000e-01	2.000000e-02	0.0	3.700000e-01	2.000000e-02	0.0	3.800000e-01	2.000000e-02	0.0	3.900000e-01	2.000000e-02	0.0	4.000000e-01	2.000000e-02	0.0	4.100000e-01	2.000000e-02	0.0	4.200000e-01	2.000000e-02	0.0	4.300000e-01	2.000000e-02	0.0	4.400000e-01	2.000000e-02	0.0	4.500000e-01	2.000000e-02	0.0	4.600000e-01	2.000000e-02	0.0	4.700000e-01	2.000000e-02	0.0	4.800000e-01	2.000000e-02	0.0	4.900000e-01	2.000000e-02	0.0	5.000000e-01	2.000000e-02	0.0	5.100000e-01	2.000000e-02	0.0	5.200000e-01	2.000000e-02	0.0	5.300000e-01	2.000000e-02	0.0	5.400000e-01	2.000000e-02	0.0	5.500000e-01	2.000000e-02	0.0	5.600000e-01	2.000000e-02	0.0	5.700000e-01	2.000000e-02	0.0	5.800000e-01	2.000000e-02	0.0	5.900000e-01	2.000000e-02	0.0	6.000000e-01	2.000000e-02	0.0	6.100000e-01	2.000000e-02	0.0	6.200000e-01	2.000000e-02	0.0	6.300000e-01	2.000000e-02	0.0	6.400000e-01	2.000000e-02	0.0	6.500000e-01	2.000000e-02	0.0	6.600000e-01	2.000000e-02	0.0	6.700000e-01	2.000000e-02	0.0	6.800000e-01	2.000000e-02	0.0	6.900000e-01	2.000000e-02	0.0	7.000000e-01	2.000000e-02	0.0	7.100000e-01	2.000000e-02	0.0	7.200000e-01	2.000000e-02	0.0	7.300000e-01	2.000000e-02	0.0	7.400000e-01	2.000000e-02	0.0	7.500000e-01	2.000000e-02	0.0	7.600000e-01	2.000000e-02	0.0	7.700000e-01	2.000000e-02	0.0	7.800000e-01	2.000000e-02	0.0	7.900000e-01	2.000000e-02	0.0	8.000000e-01	2.000000e-02	0.0	8.100000e-01	2.000000e-02	0.0	8.200000e-01	2.000000e-02	0.0	8.300000e-01	2.000000e-02	0.0	8.400000e-01	2.000000e-02	0.0	8.500000e-01	2.000000e-02	0.0	8.600000e-01	2.000000e-02	0.0	8.700000e-01	2.000000e-02	0.0	8.800000e-01	2.000000e-02	0.0	8.900000e-01	2.000000e-02	0.0	9.000000e-01	2.000000e-02	0.0	9.100000e-01	2.000000e-02	0.0	9.200000e-01	2.000000e-02	0.0	9.300000e-01	2.000000e-02	0.0	9.400000e-01	2.000000e-02	0.0	9.500000e-01	2.000000e-02	0.0	9.600000e-01	2.000000e-02	0.0	9.700000e-01	2.000000e-02	0.0	9.800000e-01	2.000000e-02	0.0	9.900000e-01	2.000000e-02	0.0	1.000000e+00	2.000000e-02	0.0	0.000000e+00	3.000000e-02	0.0	1.000000e-02	3.000000e-02	0.0	2.000000e-02	3.000000e-02	0.0	3.000000e-02	3.000000e-02	0.0	4.000000e-02	3.000000e-02	0.0	5.000000e-02	3.000000e-02	0.0	6.000000e-02	3.000000e-02	0.0	7.000000e-02	3.000000e-02	0.0	8.000000e-02	3.000000e-02	0.0	9.000000e-02	3.000000e-02	0.0	1.000000e-01	3.000000e-02	0.0	1.100000e-01	3.000000e-02	0.0	1.200000e-01	3.000000e-02	0.0	1.300000e-01	3.000000e-02	0.0	1.400000e-01	3.000000e-02	0.0	1.500000e-01	3.000000e-02	0.0	1.600000e-01	3.000000e-02	0.0	1.700000e-01	3.000000e-02	0.0	1.800000e-01	3.000000e-02	0.0	1.900000e-01	3.000000e-02	0.0	2.000000e-01	3.000000e-02	0.0	2.100000e-01	3.000000e-02	0.0	2.200000e-01	3.000000e-02	0.0	2.300000e-01	3.000000e-02	0.0	2.400000e-01	3.000000e-02	0.0	2.500000e-01	3.000000e-02	0.0	2.600000e-01	3.000000
[...]
POINT_DATA 10201

SCALARS Height double 1
LOOKUP_TABLE default
9.995766e-01	9.995847e-01	9.995864e-01	9.995854e-01	9.995848e-01	9.995845e-01	9.995842e-01	9.995827e-01	9.995806e-01	9.995785e-01	9.995762e-01	9.995734e-01	9.995715e-01	9.995754e-01	9.995959e-01	9.996577e-01	9.998197e-01	1.000231e+00	1.001249e+00	1.003402e+00	1.006823e+00	1.010708e+00	1.013686e+00	1.015191e+00	1.015589e+00	1.015533e+00	1.014992e+00	1.013719e+00	1.011462e+00	1.008406e+00	1.004965e+00	1.001558e+00	9.984918e-01	9.959336e-01	9.939884e-01	9.927044e-01	9.920236e-01	9.917822e-01	9.917605e-01	9.918357e-01	9.920886e-01	9.926168e-01	9.934258e-01	9.943725e-01	9.952771e-01	9.960292e-01	9.966069e-01	9.970356e-01	9.973492e-01	9.975744e-01	9.977287e-01	9.978262e-01	9.978823e-01	9.979150e-01	9.979427e-01	9.979981e-01	9.981359e-01	9.984906e-01	9.994137e-01	1.001458e+00	1.004872e+00	1.008975e+00	1.012327e+00	1.014147e+00	1.014710e+00	1.014710e+00	1.014295e+00	1.013172e+00	1.011097e+00	1.008189e+00	1.004849e+00	1.001457e+00	9.983421e-01	9.956906e-01	9.936219e-01	9.922025e-01	9.913996e-01	9.910723e-01	9.910098e-01	9.910528e-01	9.912598e-01	9.917226e-01	9.924706e-01	9.934083e-01	9.943336e-01	9.951117e-01	9.957020e-01	9.961258e-01	9.964236e-01	9.966352e-01	9.967909e-01	9.969100e-01	9.970050e-01	9.970825e-01	9.971460e-01	9.971972e-01	9.972373e-01	9.972675e-01	9.972891e-01	9.973020e-01	9.973073e-01	9.995831e-01	9.995910e-01	9.995865e-01	9.995858e-01	9.995848e-01	9.995847e-01	9.995849e-01	9.995847e-01	9.995840e-01	9.995825e-01	9.995787e-01	9.995739e-01	9.995689e-01	9.995674e-01	9.995747e-01	9.996046e-01	9.997043e-01	1.000040e+00	1.001041e+00	1.003327e+00	1.006976e+00	1.010889e+00	1.013784e+00	1.015214e+00	1.015603e+00	1.015580e+00	1.015181e+00	1.013852e+00	1.011491e+00	1.008353e+00	1.004880e+00	1.001474e+00	9.984043e-01	9.958427e-01	9.939139e-01	9.926612e-01	9.920115e-01	9.917796e-01	9.917458e-01	9.917897e-01	9.920347e-01	9.925874e-01	9.934178e-01	9.943733e-01	9.952775e-01	9.960271e-01	9.966042e-01	9.970339e-01	9.973488e-01	9.975745e-01	9.977280e-01	9.978237e-01	9.978774e-01	9.979062e-01	9.979253e-01	9.979492e-01	9.980216e-01	9.983010e-01	9.991968e-01	1.001352e+00	1.004995e+00	1.009171e+00	1.012446e+00	1.014179e+00	1.014718e+00	1.014748e+00	1.014455e+00	1.013306e+00	1.011137e+00	1.008157e+00	1.004763e+00	1.001368e+00	9.982500e-01	9.955931e-01	9.935375e-01	9.921474e-01	9.913782e-01	9.910674e-01	9.909978e-01	9.910109e-01	9.911960e-01	9.916782e-01	9.924608e-01	9.934073e-01	9.943329e-01	9.951092e-01	9.956981e-01	9.961214e-01	9.964195e-01	9.966316e-01	9.967873e-01	9.969062e-01	9.970005e-01	9.970770e-01	9.971394e-01	9.971897e-01	9.972291e-01	9.972585e-01	9.972793e-01	9.972913e-01	9.972952e-01	9.995882e-01	9.995956e-01	9.995917e-01	9.995909e-01	9.995898e-01	9.995896e-01	9.995894e-01	9.995885e-01	9.995856e-01	9.995822e-01	9.995776e-01	9.995722e-01	9.995676e-01	9.995670e-01	9.995759e-01	9.996062e-01	9.997023e-01	1.000038e+00	1.001079e+00	1.003464e+00	1.007141e+00	1.010961e+00	1.013716e+00	1.015097e+00	1.015501e+00	1.015510e+00	1.015180e+00	1.013860e+00	1.011430e+00	1.008301e+00	1.004900e+00	1.001554e+00	9.985055e-01	9.959549e-01	9.940312e-01	9.927661e-01	9.920854e-01	9.918215e-01	9.917731e-01	9.918023e-01	9.920296e-01	9.925969e-01	9.934410e-01	9.943891e-01	9.952808e-01	9.960237e-01	9.965996e-01	9.970305e-01	9.973472e-01	9.975744e-01	9.977287e-01	9.978244e-01	9.978779e-01	9.979058e-01	9.979235e-01	9.979477e-01	9.980232e-01	9.983096e-01	9.992389e-01	1.001478e+00	1.005178e+00	1.009270e+00	1.012400e+00	1.014066e+00	1.014617e+00	1.014667e+00	1.014439e+00	1.013330e+00	1.011098e+00	1.008104e+00	1.004771e+00	1.001438e+00	9.983472e-01	9.957048e-01	9.936561e-01	9.922572e-01	9.914601e-01	9.911165e-01	9.910277e-01	9.910315e-01	9.911901e-01	9.916834e-01	9.924836e-01	9.934228e-01	9.943341e-01	9.951022e-01	9.956889e-01	9.961131e-01	9.964133e-01	9.966274e-01	9.967847e-01	9.969049e-01	9.970004e-01	9.970781e-01	9.971417e-01	9.971933e-01	9.972335e-01	9.972632e-01	9.972837e-01	9.972955e-01	9.972986e-01	9.995857e-01	9.995912e-01	9.995892e-01	9.995886e-01	9.995883e-01	9.995886e-01	9.995889e-01	9.995876e-01	9.995856e-01	9.995827e-01	9.995784e-01	9.995730e-01	9.995680e-01	9.995667e-01	9.995734e-01	9.995986e-01	9.996797e-01	9.999910e-01	1.001027e+00	1.003470e+00	1.007205e+00	1.011008e+00	1.013690e+00	1.015028e+00	1.015431e+00	1.015447e+00	1.015171e+00	1.013923e+00	1.011454e+00	1.008285e+00	1.004900e+00	1.001587e+00	9.985618e-01	9.960190e-01	9.940915e-01	9.928174e-01	9.921245e-01	9.918487e-01	9.917908e-01	9.918080e-01	9.920010e-01	9.925611e-01	9.934213e-01	9.943729e-01	9.952604e-01	9.960031e-01	9.965822e-01	9.970168e-01	9.973364e-01	9.975652e-01	9.977201e-01	9.978159e-01	9.978691e-01	9.978966e-01	9.979135e-01	9.979351e-01	9.980012e-01	9.982686e-01	9.991913e-01	1.001477e+00	1.005240e+00	1.009330e+00	1.012383e+00	1.013992e+00	1.014536e+00	1.014595e+00	1.014411e+00	1.013385e+00	1.011132e+00	1.008091e+00	1.004768e+00	1.001463e+00	9.983957e-01	9.957640e-01	9.937133e-01	9.923076e-01	9.915007e-01	9.911452e-01	9.910480e-01	9.910453e-01	9.911698e-01	9.916444e-01	9.924605e-01	9.934073e-01	9.943135e-01	9.950787e-01	9.956688e-01	9.960979e-01	9.964020e-01	9.966187e-01	9.967776e-01	9.968984e-01	9.969939e-01	9.970718e-01	9.971360e-01	9.971883e-01	9.972289e-01	9.972585e-01	9.972786e-01	9.972900e-01	9.972936e-01	9.995847e-01	9.995907e-01	9.995883e-01	9.995883e-01	9.995876e-01	9.995879e-01	9.995882e-01	9.995874e-01	9.995859e-01	9.995833e-01	9.995792e-01	9.995739e-01	9.995687e-01	9.995666e-01	9.995715e-01	9.995928e-01	9.996653e-01	9.999577e-01	1.000978e+00	1.003444e+00	1.007227e+00	1.011019e+00	1.013667e+00	1.014958e+00	1.015349e+00	1.015367e+00	1.015128e+00	1.013968e+00	1.011519e+00	1.008305e+00	1.004923e+00	1.001644e+00	9.986454e-01	9.961125e-01	9.941787e-01	9.928905e-01	9.921820e-01	9.918930e-01	9.918260e-01	9.918359e-01	9.919929e-01	9.925192e-01	9.933844e-01	9.943486e-01	9.952371e-01	9.959803e-01	9.965631e-01	9.970022e-01	9.973247e-01	9.975547e-01	9.977101e-01	9.978062e-01	9.978596e-01	9.978871e-01	9.979038e-01	9.979239e-01	9.979851e-01	9.982397e-01	9.991496e-01	1.001452e+00	1.005254e+00	1.009352e+00	1.012363e+00	1.013923e+00	1.014453e+00	1.014512e+00	1.014360e+00	1.013420e+00	1.011201e+00	1.008117e+00	1.004788e+00	1.001513e+00	9.984737e-01	9.958540e-01	9.937997e-01	9.923823e-01	9.915616e-01	9.911941e-01	9.910858e-01	9.910763e-01	9.911723e-01	9.916065e-01	9.924200e-01	9.933827e-01	9.942890e-01	9.950525e-01	9.956463e-01	9.960807e-01	9.963889e-01	9.966083e-01	9.967685e-01	9.968899e-01	9.969857e-01	9.970640e-01	9.971288e-01	9.971813e-01	9.972222e-01	9.972522e-01	9.972734e-01	9.972859e-01	9.972912e-01	9.995848e-01	9.995911e-01	9.995885e-01	9.995890e-01	9.995883e-01	9.995885e-01	9.995881e-01	9.995874e-01	9.995862e-01	9.995843e-01	9.995811e-01	9.995766e-01	9.995717e-01	9.995687e-01	9.995716e-01	9.995892e-01	9.996563e-01	9.999364e-01	1.000938e+00	1.003396e+00	1.007196e+00	1.010998e+00	1.013618e+00	1.014893e+00	1.015276e+00	1.015293e+00	1.015078e+00	1.014006e+00	1.011619e+00	1.008381e+00	1.004978e+00	1.001718e+00	9.987491e-01	9.962239e-01	9.942812e-01	9.929771e-01	9.922508e-01	9.919459e-01	9.918728e-01	9.918780e-01	9.920065e-01	9.924881e-01	9.933401e-01	9.943162e-01	9.952107e-01	9.959538e-01	9.965393e-01	9.969830e-01	9.973092e-01	9.975408e-01	9.976968e-01	9.977936e-01	9.978477e-01	9.978757e-01	9.978921e-01	9.979117e-01	9.979715e-01	9.982207e-01	9.991194e-01	1.001419e+00	1.005234e+00	1.009319e+00	1.012304e+00	1.013845e+00	1.014369e+00	1.014429e+00	1.014298e+00	1.013442e+00	1.011297e+00	1.008198e+00	1.004840e+00	1.001578e+00	9.985691e-01	9.959604e-01	9.939005e-01	9.924688e-01	9.916312e-01	9.912491e-01	9.911338e-01	9.911187e-01	9.911949e-01	9.915844e-01	9.923746e-01	9.933478e-01	9.942605e-01	9.950238e-01	9.956198e-01	9.960595e-01	9.963724e-01	9.965951e-01	9.967573e-01	9.968800e-01	9.969766e-01	9.970554e-01	9.971200e-01	9.971722e-01	9.972133e-01	9.972449e-01	9.972688e-01	9.972832e-01	9.972908e-01	9.995869e-01	9.995943e-01	9.995904e-01	9.995908e-01	9.995898e-01	9.995893e-01	9.995889e-01	9.995882e-01	9.995873e-01	9.995856e-01	9.995830e-01	9.995792e-01	9.995745e-01	9.995710e-01	9.995722e-01	9.995872e-01	9.996503e-01	9.999246e-01	1.000910e+00	1.003340e+00	1.007132e+00	1.010934e+00	1.013541e+00	1.014808e+00	1.015195e+00	1.015217e+00	1.015026e+00	1.014038e+00	1.011739e+00	1.008512e+00	1.005076e+00	1.001818e+00	9.988723e-01	9.963552e-01	9.944024e-01	9.930790e-01	9.923318e-01	9.920093e-01	9.919255e-01	9.919285e-01	9.920350e-01	9.924686e-01	9.932928e-01	9.942749e-01	9.951789e-01	9.959234e-01	9.965099e-01	9.969584e-01	9.972898e-01	9.975255e-01	9.976841e-01	9.977827e-01	9.978378e-01	9.978662e-01	9.978829e-01	9.979034e-01	9.979646e-01	9.982135e-01	9.991048e-01	1.001385e+00	1.005177e+00	1.009249e+00	1.012219e+00	1.013754e+00	1.014276e+00	1.014339e+00	1.014224e+00	1.013446e+00	1.011402e+00	1.008327e+00	1.004936e+00	1.001673e+00	9.986851e-01	9.960870e-01	9.940200e-01	9.925705e-01	9.917123e-01	9.913126e-01	9.911869e-01	9.911689e-01	9.912302e-01	9.915762e-01	9.923299e-01	9.933019e-01	9.942257e-01	9.949914e-01	9.955876e-01	9.960311e-01	9.963505e-01	9.965787e-01	9.967454e-01	9.968714e-01	9.969701e-01	9.970495e-01	9.971137e-01	9.971656e-01	9.972074e-01	9.972407e-01	9.972665e-01	9.972818e-01	9.972914e-01	9.995893e-01	9.995960e-01	9.995914e-01	9.995915e-01	9.995903e-01	9.995898e-01	9.995890e-01	9.995874e-01	9.995864e-01	9.995850e-01	9.995828e-01	9.995791e-01	9.995750e-01	9.995716e-01	9.995720e-01	9.995854e-01	9.996482e-01	9.999182e-01	1.000889e+00	1.003286e+00	1.007041e+00	1.010827e+00	1.013432e+00	1.014703e+00	1.015093e+00	1.015118e+00	1.014952e+00	1.014046e+00	1.011856e+00	1.008678e+00	1.005227e+00	1.001955e+00	9.990166e-01	9.965084e-01	9.945453e-01	9.931973e-01	9.924223e-01	9.920782e-01	9.919835e-01	9.919844e-01	9.920704e-01	9.924517e-01	9.932354e-01	9.942173e-01	9.951336e-01	9.958834e-01	9.964722e-01	9.969260e-01	9.972654e-01	9.975082e-01	9.976724e-01	9.977743e-01	9.978309e-01	9.978601e-01	9.978779e-01	9.979003e-01	9.979638e-01	9.982142e-01	9.990993e-01	1.001354e+00	1.005105e+00	1.009144e+00	1.012100e+00	1.013638e+00	1.014170e+00	1.014239e+00	1.014134e+00	1.013426e+00	1.011498e+00	1.008491e+00	1.005093e+00	1.001808e+00	9.988238e-01	9.962354e-01	9.941606e-01	9.926883e-01	9.918033e-01	9.913812e-01	9.912420e-01	9.912225e-01	9.912711e-01	9.915727e-01	9.922806e-01	9.932421e-01	9.941781e-01	9.949500e-01	9.955457e-01	9.959925e-01	9.963204e-01	9.965582e-01	9.967328e-01	9.968643e-01	9.969661e-01	9.970469e-01	9.971116e-01	9.971640e-01	9.972065e-01	9.972399e-01	9.972652e-01	9.972794e-01	9.972898e-01	9.995879e-01	9.995964e-01	9.995912e-01	9.995915e-01	9.995901e-01	9.995892e-01	9.995886e-01	9.995868e-01	9.995845e-01	9.995821e-01	9.995791e-01	9.995760e-01	9.995723e-01	9.995692e-01	9.995695e-01	9.995820e-01	9.996448e-01	9.999150e-01	1.000874e+00	1.003231e+00	1.006934e+00	1.010692e+00	1.013294e+00	1.014572e+00	1.014974e+00	1.015001e+00	1.014853e+00	1.014023e+00	1.011950e+00	1.008856e+00	1.005417e+00	1.002126e+00	9.991865e-01	9.966852e-01	9.947122e-01	9.933345e-01	9.925240e-01	9.921522e-01	9.920441e-01	9.920424e-01	9.921086e-01	9.924318e-01	9.931609e-01	9.941315e-01	9.950651e-01	9.958315e-01	9.964286e-01	9.968886e-01	9.972361e-01	9.974880e-01	9.976590e-01	9.977646e-01	9.978235e-01	9.978545e-01	9.978739e-01	9.978979e-01	9.979639e-01	9.982169e-01	9.990967e-01	1.001321e+00	1.005018e+00	1.009013e+00	1.011955e+00	1.013496e+00	1.014042e+00	1.014120e+00	1.014030e+00	1.013383e+00	1.011572e+00	1.008662e+00	1.005286e+00	1.001982e+00	9.989906e-01	9.964070e-01	9.943238e-01	9.928245e-01	9.919055e-01	9.914550e-01	9.913008e-01	9.912781e-01	9.913137e-01	9.915675e-01	9.922178e-01	9.931564e-01	9.941028e-01	9.948898e-01	9.954934e-01	9.959462e-01	9.962829e-01	9.965324e-01	9.967172e-01	9.968557e-01	9.969616e-01	9.970448e-01	9.971111e-01	9.971646e-01	9.972070e-01	9.972389e-01	9.972615e-01	9.972729e-01	9.972827e-01	9.995847e-01	9.995941e-01	9.995887e-01	9.995891e-01	9.995877e-01	9.995869e-01	9.995861e-01	9.995846e-01	9.995818e-01	9.995783e-01	9.995741e-01	9.995703e-01	9.995671e-01	9.995640e-01	9.995639e-01	9.995758e-01	9.996384e-01	9.999098e-01	1.000857e+00	1.003168e+00	1.006810e+00	1.010532e+00	1.013132e+00	1.014419e+00	1.014833e+00	1.014868e+00	1.014740e+00	1.013980e+00	1.012024e+00	1.009027e+00	1.005624e+00	1.002328e+00	9.993814e-01	9.968804e-01	9.948969e-01	9.934882e-01	9.926380e-01	9.922323e-01	9.921049e-01	9.920981e-01	9.921456e-01	9.924071e-01	9.930679e-01	9.940157e-01	9.949682e-01	9.957624e-01	9.963781e-01	9.968484e-01	9.972037e-01	9.974628e-01	9.976394e-01	9.977493e-01	9.978115e-01	9.978448e-01	9.978661e-01	9.978918e-01	9.979602e-01	9.982166e-01	9.990919e-01	1.001281e+00	1.004915e+00	1.008862e+00	1.011790e+00	1.013335e+00	1.013892e+00	1.013977e+00	1.013903e+00	1.013320e+00	1.011626e+00	1.008825e+00	1.005495e+00	1.002188e+00	9.991847e-01	9.965978e-01	9.945052e-01	9.929784e-01	9.920221e-01	9.915384e-01	9.913639e-01	9.913339e-01	9.913559e-01	9.915572e-01	9.921387e-01	9.930434e-01	9.939985e-01	9.948098e-01	9.954324e-01	9.958965e-01	9.962423e-01	9.965010e-01	9.966948e-01	9.968401e-01	9.969511e-01	9.970379e-01	9.971069e-01	9.971616e-01	9.972034e-01	9.972330e-01	9.972523e-01	9.972607e-01	9.972697e-01	9.995784e-01	9.995887e-01	9.995818e-01	9.995826e-01	9.995814e-01	9.995810e-01	9.995807e-01	9.995796e-01	9.995772e-01	9.995730e-01	9.995686e-01	9.995645e-01	9.995609e-01	9.995574e-01	9.995567e-01	9.995680e-01	9.996312e-01	9.999036e-01	1.000835e+00	1.003093e+00	1.006662e+00	1.010345e+00	1.012947e+00	1.014251e+00	1.014679e+00	1.014721e+00	1.014610e+00	1.013923e+00	1.012087e+00	1.009192e+00	1.005837e+00	1.002548e+00	9.995928e-01	9.970844e-01	9.950881e-01	9.936500e-01	9.927593e-01	9.923160e-01	9.921626e-01	9.921456e-01	9.921765e-01	9.923781e-01	9.929617e-01	9.938743e-01	9.948424e-01	9.956715e-01	9.963167e-01	9.968041e-01	9.971680e-01	9.974313e-01	9.976111e-01	9.977244e-01	9.977893e-01	9.978252e-01	9.978484e-01	9.978754e-01	9.979468e-01	9.982099e-01	9.990840e-01	1.001235e+00	1.004794e+00	1.008686e+00	1.011606e+00	1.013163e+00	1.013730e+00	1.013819e+00	1.013756e+00	1.013239e+00	1.011665e+00	1.008979e+00	1.005710e+00	1.002412e+00	9.993980e-01	9.968015e-01	9.946973e-01	9.931449e-01	9.921514e-01	9.916319e-01	9.914309e-01	9.913885e-01	9.913958e-01	9.915444e-01	9.920491e-01	9.929072e-01	9.938663e-01	9.947079e-01	9.953604e-01	9.958437e-01	9.961998e-01	9.964649e-01	9.966637e-01	9.968137e-01	9.969294e-01	9.970202e-01	9.970918e-01	9.971473e-01	9.971886e-01	9.972169e-01	9.972354e-01	9.972431e-01	9.972528e-01	9.995703e-01	9.995803e-01	9.995723e-01	9.995733e-01	9.995721e-01	9.995722e-01	9.995727e-01	9.995728e-01	9.995713e-01	9.995680e-01	9.995633e-01	9.995592e-01	9.995549e-01	9.995506e-01	9.995495e-01	9.995603e-01	9.996249e-01	9.998995e-01	1.000818e+00	1.003015e+00	1.006497e+00	1.010131e+00	1.012740e+00	1.014071e+00	1.014519e+00	1.014567e+00	1.014469e+00	1.013855e+00	1.012144e+00	1.009356e+00	1.006056e+00	1.002780e+00	9.998155e-01	9.972931e-01	9.952793e-01	9.938122e-01	9.928814e-01	9.923981e-01	9.922154e-01	9.921836e-01	9.922013e-01	9.923506e-01	9.928543e-01	9.937210e-01	9.946965e-01	9.955593e-01	9.962385e-01	9.967489e-01	9.971244e-01	9.973924e-01	9.975742e-01	9.976886e-01	9.977550e-01	9.977925e-01	9.978170e-01	9.978464e-01	9.979244e-01	9.981995e-01	9.990768e-01	1.001185e+00	1.004656e+00	1.008482e+00	1.011395e+00	1.012977e+00	1.013563e+00	1.013659e+00	1.013603e+00	1.013146e+00	1.011699e+00	1.009136e+00	1.005933e+00	1.002650e+00	9.996269e-01	9.970162e-01	9.948972e-01	9.933201e-01	9.922896e-01	9.917314e-01	9.915006e-01	9.914397e-01	9.914358e-01	9.915373e-01	9.919635e-01	9.927652e-01	9.937200e-01	9.945890e-01	9.952751e-01	9.957830e-01	9.961526e-01	9.964235e-01	9.966250e-01	9.967776e-01	9.968956e-01	9.969885e-01	9.970612e-01	9.971175e-01	9.971600e-01	9.971910e-01	9.972130e-01	9.972231e-01	9.972355e-01	9.995636e-01	9.995726e-01	9.995634e-01	9.995646e-01	9.995635e-01	9.995638e-01	9.995649e-01	9.995660e-01	9.995657e-01	9.995632e-01	9.995595e-01	9.995547e-01	9.995501e-01	9.995461e-01	9.995438e-01	9.995560e-01	9.996235e-01	9.999019e-01	1.000806e+00	1.002939e+00	1.006321e+00	1.009895e+00	1.012511e+00	1.013875e+00	1.014348e+00	1.014404e+00	1.014321e+00	1.013778e+00	1.012195e+00	1.009530e+00	1.006293e+00	1.003032e+00	1.000058e+00	9.975160e-01	9.954782e-01	9.939792e-01	9.930064e-01	9.924804e-01	9.922674e-01	9.922188e-01	9.922280e-01	9.923349e-01	9.927586e-01	9.935680e-01	9.945405e-01	9.954302e-01	9.961411e-01	9.966763e-01	9.970672e-01	9.973435e-01	9.975299e-01	9.976466e-01	9.977142e-01	9.977531e-01	9.977802e-01	9.978150e-01	9.979044e-01	9.981953e-01	9.990766e-01	1.001139e+00	1.004508e+00	1.008251e+00	1.011155e+00	1.012771e+00	1.013388e+00	1.013500e+00	1.013452e+00	1.013058e+00	1.011740e+00	1.009303e+00	1.006172e+00	1.002909e+00	9.998775e-01	9.972496e-01	9.951110e-01	9.935066e-01	9.924367e-01	9.918358e-01	9.915724e-01	9.914927e-01	9.914797e-01	9.915452e-01	9.918958e-01	9.926321e-01	9.935712e-01	9.944600e-01	9.951759e-01	9.957100e-01	9.960964e-01	9.963762e-01	9.965823e-01	9.967374e-01	9.968571e-01	9.969504e-01	9.970238e-01	9.970818e-01	9.971281e-01	9.971641e-01	9.971910e-01	9.972039e-01	9.972194e-01	9.995641e-01	9.995708e-01	9.995605e-01	9.995615e-01	9.995602e-01	9.995602e-01	9.995610e-01	9.995621e-01	9.995620e-01	9.995599e-01	9.995560e-01	9.995513e-01	9.995468e-01	9.995440e-01	9.995422e-01	9.995557e-01	9.996292e-01	9.999119e-01	1.000800e+00	1.002866e+00	1.006142e+00	1.009645e+00	1.012261e+00	1.013660e+00	1.014166e+00	1.014238e+00	1.014175e+00	1.013706e+00	1.012271e+00	1.009732e+00	1.006567e+00	1.003325e+00	1.000342e+00	9.977764e-01	9.957071e-01	9.941688e-01	9.931488e-01	9.925754e-01	9.923278e-01	9.922638e-01	9.922672e-01	9.923407e-01	9.926825e-01	9.934207e-01	9.943790e-01	9.952903e-01	9.960293e-01	9.965880e-01	9.969960e-01	9.972839e-01	9.974774e-01	9.975990e-01	9.976713e-01	9.977153e-01	9.977492e-01	9.977930e-01	9.978938e-01	9.982007e-01	9.990859e-01	1.001098e+00	1.004357e+00	1.008005e+00	1.010890e+00	1.012543e+00	1.013202e+00	1.013336e+00	1.013300e+00	1.012970e+00	1.011786e+00	1.009485e+00	1.006434e+00	1.003197e+00	1.000160e+00	9.975146e-01	9.953511e-01	9.937133e-01	9.925996e-01	9.919504e-01	9.916491e-01	9.915520e-01	9.915335e-01	9.915726e-01	9.918490e-01	9.925109e-01	9.934245e-01	9.943256e-01	9.950677e-01	9.956265e-01	9.960317e-01	9.963247e-01	9.965397e-01	9.967005e-01	9.968234e-01	9.969190e-01	9.969947e-01	9.970557e-01	9.971052e-01	9.971444e-01	9.971737e-01	9.971876e-01	9.972053e-01	9.995812e-01	9.995816e-01	9.995696e-01	9.995694e-01	9.995671e-01	9.995657e-01	9.995648e-01	9.995645e-01	9.995636e-01	9.995610e-01	9.995568e-01	9.995516e-01	9.995469e-01	9.995441e-01	9.995434e-01	9.995589e-01	9.996386e-01	9.999270e-01	1.000801e+00	1.002799e+00	1.005969e+00	1.009394e+00	1.012003e+00	1.013445e+00	1.013999e+00	1.014103e+00	1.014061e+00	1.013676e+00	1.012382e+00	1.009982e+00	1.006898e+00	1.003683e+00	1.000692e+00	9.981011e-01	9.959941e-01	9.944065e-01	9.933301e-01	9.927039e-01	9.924131e-01	9.923252e-01	9.923218e-01	9.923700e-01	9.926313e-01	9.932833e-01	9.942142e-01	9.951429e-01	9.959095e-01	9.964908e-01	9.969151e-01	9.972151e-01	9.974177e-01	9.975468e-01	9.976261e-01	9.976777e-01	9.977203e-01	9.977744e-01	9.978881e-01	9.982082e-01	9.990946e-01	1.001056e+00	1.004203e+00	1.007748e+00	1.010605e+00	1.012293e+00	1.012998e+00	1.013162e+00	1.013140e+00	1.012873e+00	1.011829e+00	1.009679e+00	1.006720e+00	1.003519e+00	1.000483e+00	9.978216e-01	9.956301e-01	9.939515e-01	9.927870e-01	9.920850e-01	9.917396e-01	9.916171e-01	9.915934e-01	9.916156e-01	9.918219e-01	9.923991e-01	9.932757e-01	9.941864e-01	9.949545e-01	9.955381e-01	9.959639e-01	9.962734e-01	9.965007e-01	9.966701e-01	9.967990e-01	9.968990e-01	9.969780e-01	9.970413e-01	9.970919e-01	9.971314e-01	9.971607e-01	9.971743e-01	9.971927e-01	9.996361e-01	9.996211e-01	9.996034e-01	9.995988e-01	9.995928e-01	9.995885e-01	9.995849e-01	9.995823e-01	9.995801e-01	9.995764e-01	9.995718e-01	9.995666e-01	9.995630e-01	9.995621e-01	9.995632e-01	9.995816e-01	9.996658e-01	9.999553e-01	1.000813