# vtk DataFile Version 3.0
vtk output
ASCII
DATASET STRUCTURED_GRID
DIMENSIONS 101 101 1
POINTS 10201 double
0.000000e+00	0.000000e+00	0.0	1.000000e-02	0.000000e+00	0.0	2.000000e-02	0.000000e+00	0.0	3.000000e-02	0.000000e+00	0.0	4.000000e-02	0.000000e+00	0.0	5.000000e-02	0.000000e+00	0.0	6.000000e-02	0.000000e+00	0.0	7.000000e-02	0.000000e+00	0.0	8.000000e-02	0.000000e+00	0.0	9.000000e-02	0.000000e+00	0.0	1.000000e-01	0.000000e+00	0.0	1.100000e-01	0.000000e+00	0.0	1.200000e-01	0.000000e+00	0.0	1.300000e-01	0.000000e+00	0.0	1.400000e-01	0.000000e+00	0.0	1.500000e-01	0.000000e+00	0.0	1.600000e-01	0.000000e+00	0.0	1.700000e-01	0.000000e+00	0.0	1.800000e-01	0.000000e+00	0.0	1.900000e-01	0.000000e+00	0.0	2.000000e-01	0.000000e+00	0.0	2.100000e-01	0.000000e+00	0.0	2.200000e-01	0.000000e+00	0.0	2.300000e-01	0.000000e+00	0.0	2.400000e-01	0.000000e+00	0.0	2.500000e-01	0.000000e+00	0.0	2.600000e-01	0.000000e+00	0.0	2.700000e-01	0.000000e+00	0.0	2.800000e-01	0.000000e+00	0.0	2.900000e-01	0.000000e+00	0.0	3.000000e-01	0.000000e+00	0.0	3.100000e-01	0.000000e+00	0.0	3.200000e-01	0.000000e+00	0.0	3.300000e-01	0.000000e+00	0.0	3.400000e-01	0.000000e+00	0.0	3.500000e-01	0.000000e+00	0.0	3.600000e-01	0.000000e+00	0.0	3.700000e-01	0.000000e+00	0.0	3.800000e-01	0.000000e+00	0.0	3.900000e-01	0.000000e+00	0.0	4.000000e-01	0.000000e+00	0.0	4.100000e-01	0.000000e+00	0.0	4.200000e-01	0.000000e+00	0.0	4.300000e-01	0.000000e+00	0.0	4.400000e-01	0.000000e+00	0.0	4.500000e-01	0.000000e+00	0.0	4.600000e-01	0.000000e+00	0.0	4.700000e-01	0.000000e+00	0.0	4.800000e-01	0.000000e+00	0.0	4.900000e-01	0.000000e+00	0.0	5.000000e-01	0.000000e+00	0.0	5.100000e-01	0.000000e+00	0.0	5.200000e-01	0.000000e+00	0.0	5.300000e-01	0.000000e+00	0.0	5.400000e-01	0.000000e+00	0.0	5.500000e-01	0.000000e+00	0.0	5.600000e-01	0.000000e+00	0.0	5.700000e-01	0.000000e+00	0.0	5.800000e-01	0.000000e+00	0.0	5.900000e-01	0.000000e+00	0.0	6.000000e-01	0.000000e+00	0.0	6.100000e-01	0.000000e+00	0.0	6.200000e-01	0.000000e+00	0.0	6.300000e-01	0.000000e+00	0.0	6.400000e-01	0.000000e+00	0.0	6.500000e-01	0.000000e+00	0.0	6.600000e-01	0.000000e+00	0.0	6.700000e-01	0.000000e+00	0.0	6.800000e-01	0.000000e+00	0.0	6.900000e-01	0.000000e+00	0.0	7.000000e-01	0.000000e+00	0.0	7.100000e-01	0.000000e+00	0.0	7.200000e-01	0.000000e+00	0.0	7.300000e-01	0.000000e+00	0.0	7.400000e-01	0.000000e+00	0.0	7.500000e-01	0.000000e+00	0.0	7.600000e-01	0.000000e+00	0.0	7.700000e-01	0.000000e+00	0.0	7.800000e-01	0.000000e+00	0.0	7.900000e-01	0.000000e+00	0.0	8.000000e-01	0.000000e+00	0.0	8.100000e-01	0.000000e+00	0.0	8.200000e-01	0.000000e+00	0.0	8.300000e-01	0.000000e+00	0.0	8.400000e-01	0.000000e+00	0.0	8.500000e-01	0.000000e+00	0.0	8.600000e-01	0.000000e+00	0.0	8.700000e-01	0.000000e+00	0.0	8.800000e-01	0.000000e+00	0.0	8.900000e-01	0.000000e+00	0.0	9.000000e-01	0.000000e+00	0.0	9.100000e-01	0.000000e+00	0.0	9.200000e-01	0.000000e+00	0.0	9.300000e-01	0.000000e+00	0.0	9.400000e-01	0.000000e+00	0.0	9.500000e-01	0.000000e+00	0.0	9.600000e-01	0.000000e+00	0.0	9.700000e-01	0.000000e+00	0.0	9.800000e-01	0.000000e+00	0.0	9.900000e-01	0.000000e+00	0.0	1.000000e+00	0.000000e+00	0.0	0.000000e+00	1.000000e-02	0.0	1.000000e-02	1.000000e-02	0.0	2.000000e-02	1.000000e-02	0.0	3.000000e-02	1.000000e-02	0.0	4.000000e-02	1.000000e-02	0.0	5.000000e-02	1.000000e-02	0.0	6.000000e-02	1.000000e-02	0.0	7.000000e-02	1.000000e-02	0.0	8.000000e-02	1.000000e-02	0.0	9.000000e-02	1.000000e-02	0.0	1.000000e-01	1.000000e-02	0.0	1.100000e-01	1.000000e-02	0.0	1.200000e-01	1.000000e-02	0.0	1.300000e-01	1.000000e-02	0.0	1.400000e-01	1.000000e-02	0.0	1.500000e-01	1.000000e-02	0.0	1.600000e-01	1.000000e-02	0.0	1.700000e-01	1.000000e-02	0.0	1.800000e-01	1.000000e-02	0.0	1.900000e-01	1.000000e-02	0.0	2.000000e-01	1.000000e-02	0.0	2.100000e-01	1.000000e-02	0.0	2.200000e-01	1.000000e-02	0.0	2.300000e-01	1.000000e-02	0.0	2.400000e-01	1.000000e-02	0.0	2.500000e-01	1.000000e-02	0.0	2.600000e-01	1.000000e-02	0.0	2.700000e-01	1.000000e-02	0.0	2.800000e-01	1.000000e-02	0.0	2.900000e-01	1.000000e-02	0.0	3.000000e-01	1.000000e-02	0.0	3.100000e-01	1.000000e-02	0.0	3.200000e-01	1.000000e-02	0.0	3.300000e-01	1.000000e-02	0.0	3.400000e-01	1.000000e-02	0.0	3.500000e-01	1.000000e-02	0.0	3.600000e-01	1.000000e-02	0.0	3.700000e-01	1.000000e-02	0.0	3.800000e-01	1.000000e-02	0.0	3.900000e-01	1.000000e-02	0.0	4.000000e-01	1.000000e-02	0.0	4.100000e-01	1.000000e-02	0.0	4.200000e-01	1.000000e-02	0.0	4.300000e-01	1.000000e-02	0.0	4.400000e-01	1.000000e-02	0.0	4.500000e-01	1.000000e-02	0.0	4.600000e-01	1.000000e-02	0.0	4.700000e-01	1.000000e-02	0.0	4.800000e-01	1.000000e-02	0.0	4.900000e-01	1.000000e-02	0.0	5.000000e-01	1.000000e-02	0.0	5.100000e-01	1.000000e-02	0.0	5.200000e-01	1.000000e-02	0.0	5.300000e-01	1.000000e-02	0.0	5.400000e-01	1.000000e-02	0.0	5.500000e-01	1.000000e-02	0.0	5.600000e-01	1.000000e-02	0.0	5.700000e-01	1.000000e-02	0.0	5.800000e-01	1.000000e-02	0.0	5.900000e-01	1.000000e-02	0.0	6.000000e-01	1.000000e-02	0.0	6.100000e-01	1.000000e-02	0.0	6.200000e-01	1.000000e-02	0.0	6.300000e-01	1.000000e-02	0.0	6.400000e-01	1.000000e-02	0.0	6.500000e-01	1.000000e-02	0.0	6.600000e-01	1.000000e-02	0.0	6.700000e-01	1.000000e-02	0.0	6.800000e-01	1.000000e-02	0.0	6.900000e-01	1.000000e-02	0.0	7.000000e-01	1.000000e-02	0.0	7.100000e-01	1.000000e-02	0.0	7.200000e-01	1.000000e-02	0.0	7.300000e-01	1.000000e-02	0.0	7.400000e-01	1.000000e-02	0.0	7.500000e-01	1.000000e-02	0.0	7.600000e-01	1.000000e-02	0.0	7.700000e-01	1.000000e-02	0.0	7.800000e-01	1.000000e-02	0.0	7.900000e-01	1.000000e-02	0.0	8.000000e-01	1.000000e-02	0.0	8.100000e-01	1.000000e-02	0.0	8.200000e-01	1.000000e-02	0.0	8.300000e-01	1.000000e-02	0.0	8.400000e-01	1.000000e-02	0.0	8.500000e-01	1.000000e-02	0.0	8.600000e-01	1.000000e-02	0.0	8.700000e-01	1.000000e-02	0.0	8.800000e-01	1.000000e-02	0.0	8.900000e-01	1.000000e-02	0.0	9.000000e-01	1.000000e-02	0.0	9.100000e-01	1.000000e-02	0.0	9.200000e-01	1.000000e-02	0.0	9.300000e-01	1.000000e-02	0.0	9.400000e-01	1.000000e-02	0.0	9.500000e-01	1.000000e-02	0.0	9.600000e-01	1.000000e-02	0.0	9.700000e-01	1.000000e-02	0.0	9.800000e-01	1.000000e-02	0.0	9.900000e-01	1.000000e-02	0.0	1.000000e+00	1.000000e-02	0.0	0.000000e+00	2.000000e-02	0.0	1.000000e-02	2.000000e-02	0.0	2.000000e-02	2.000000e-02	0.0	3.000000e-02	2.000000e-02	0.0	4.000000e-02	2.000000e-02	0.0	5.000000e-02	2.000000e-02	0.0	6.000000e-02	2.000000e-02	0.0	7.000000e-02	2.000000e-02	0.0	8.000000e-02	2.000000e-02	0.0	9.000000e-02	2.000000e-02	0.0	1.000000e-01	2.000000e-02	0.0	1.100000e-01	2.000000e-02	0.0	1.200000e-01	2.000000e-02	0.0	1.300000e-01	2.000000e-02	0.0	1.400000e-01	2.000000e-02	0.0	1.500000e-01	2.000000e-02	0.0	1.600000e-01	2.000000e-02	0.0	1.700000e-01	2.000000e-02	0.0	1.800000e-01	2.000000e-02	0.0	1.900000e-01	2.000000e-02	0.0	2.000000e-01	2.000000e-02	0.0	2.100000e-01	2.000000e-02	0.0	2.200000e-01	2.000000e-02	0.0	2.300000e-01	2.000000e-02	0.0	2.400000e-01	2.000000e-02	0.0	2.500000e-01	2.000000e-02	0.0	2.600000e-01	2.000000e-02	0.0	2.700000e-01	2.000000e-02	0.0	2.800000e-01	2.000000e-02	0.0	2.900000e-01	2.000000e-02	0.0	3.000000e-01	2.000000e-02	0.0	3.100000e-01	2.000000e-02	0.0	3.200000e-01	2.000000e-02	0.0	3.300000e-01	2.000000e-02	0.0	3.400000e-01	2.000000e-02	0.0	3.500000e-01	2.000000e-02	0.0	3.600000e-01	2.000000e-02	0.0	3.700000e-01	2.000000e-02	0.0	3.800000e-01	2.000000e-02	0.0	3.900000e-01	2.000000e-02	0.0	4.000000e-01	2.000000e-02	0.0	4.100000e-01	2.000000e-02	0.0	4.200000e-01	2.000000e-02	0.0	4.300000e-01	2.000000e-02	0.0	4.400000e-01	2.000000e-02	0.0	4.500000e-01	2.000000e-02	0.0	4.600000e-01	2.000000e-02	0.0	4.700000e-01	2.000000e-02	0.0	4.800000e-01	2.000000e-02	0.0	4.900000e-01	2.000000e-02	0.0	5.000000e-01	2.000000e-02	0.0	5.100000e-01	2.000000e-02	0.0	5.200000e-01	2.000000e-02	0.0	5.300000e-01	2.000000e-02	0.0	5.400000e-01	2.000000e-02	0.0	5.500000e-01	2.000000e-02	0.0	5.600000e-01	2.000000e-02	0.0	5.700000e-01	2.000000e-02	0.0	5.800000e-01	2.000000e-02	0.0	5.900000e-01	2.000000e-02	0.0	6.000000e-01	2.000000e-02	0.0	6.100000e-01	2.000000e-02	0.0	6.200000e-01	2.000000e-02	0.0	6.300000e-01	2.000000e-02	0.0	6.400000e-01	2.000000e-02	0.0	6.500000e-01	2.000000e-02	0.0	6.600000e-01	2.000000e-02	0.0	6.700000e-01	2.000000e-02	0.0	6.800000e-01	2.000000e-02	0.0	6.900000e-01	2.000000e-02	0.0	7.000000e-01	2.000000e-02	0.0	7.100000e-01	2.000000e-02	0.0	7.200000e-01	2.000000e-02	0.0	7.300000e-01	2.000000e-02	0.0	7.400000e-01	2.000000e-02	0.0	7.500000e-01	2.000000e-02	0.0	7.600000e-01	2.000000e-02	0.0	7.700000e-01	2.000000e-02	0.0	7.800000e-01	2.000000e-02	0.0	7.900000e-01	2.000000e-02	0.0	8.000000e-01	2.000000e-02	0.0	8.100000e-01	2.000000e-02	0.0	8.200000e-01	2.000000e-02	0.0	8.300000e-01	2.000000e-02	0.0	8.400000e-01	2.000000e-02	0.0	8.500000e-01	2.000000e-02	0.0	8.600000e-01	2.000000e-02	0.0	8.700000e-01	2.000000e-02	0.0	8.800000e-01	2.000000e-02	0.0	8.900000e-01	2.000000e-02	0.0	9.000000e-01	2.000000e-02	0.0	9.100000e-01	2.000000e-02	0.0	9.200000e-01	2.000000e-02	0.0	9.300000e-01	2.000000e-02	0.0	9.400000e-01	2.000000e-02	0.0	9.500000e-01	2.000000e-02	0.0	9.600000e-01	2.000000e-02	0.0	9.700000e-01	2.000000e-02	0.0	9.800000e-01	2.000000e-02	0.0	9.900000e-01	2.000000e-02	0.0	1.000000e+00	2.000000e-02	0.0	0.000000e+00	3.000000e-02	0.0	1.000000e-02	3.000000e-02	0.0	2.000000e-02	3.000000e-02	0.0	3.000000e-02	3.000000e-02	0.0	4.000000e-02	3.000000e-02	0.0	5.000000e-02	3.000000e-02	0.0	6.000000e-02	3.000000e-02	0.0	7.000000e-02	3.000000e-02	0.0	8.000000e-02	3.000000e-02	0.0	9.000000e-02	3.000000e-02	0.0	1.000000e-01	3.000000e-02	0.0	1.100000e-01	3.000000e-02	0.0	1.200000e-01	3.000000e-02	0.0	1.300000e-01	3.000000e-02	0.0	1.400000e-01	3.000000e-02	0.0	1.500000e-01	3.000000e-02	0.0	1.600000e-01	3.000000e-02	0.0	1.700000e-01	3.000000e-02	0.0	1.800000e-01	3.000000e-02	0.0	1.900000e-01	3.000000e-02	0.0	2.000000e-01	3.000000e-02	0.0	2.100000e-01	3.000000e-02	0.0	2.200000e-01	3.000000e-02	0.0	2.300000e-01	3.000000e-02	0.0	2.400000e-01	3.000000e-02	0.0	2.500000e-01	3.000000e-02	0.0	2.600000e-01	3.000000
[...]
POINT_DATA 10201

SCALARS Height double 1
LOOKUP_TABLE default
9.964800e-01	9.964744e-01	9.964811e-01	9.964553e-01	9.964316e-01	9.963982e-01	9.963542e-01	9.963011e-01	9.962441e-01	9.961797e-01	9.961073e-01	9.960255e-01	9.959308e-01	9.958218e-01	9.956952e-01	9.955488e-01	9.953814e-01	9.951900e-01	9.949684e-01	9.947134e-01	9.944186e-01	9.940611e-01	9.936064e-01	9.929775e-01	9.920472e-01	9.906698e-01	9.887864e-01	9.865339e-01	9.842835e-01	9.824988e-01	9.814176e-01	9.810239e-01	9.812314e-01	9.826898e-01	9.860331e-01	9.912095e-01	9.978608e-01	1.005488e+00	1.013465e+00	1.020958e+00	1.027007e+00	1.030936e+00	1.032662e+00	1.032573e+00	1.029284e+00	1.020841e+00	1.010274e+00	1.002682e+00	9.991235e-01	9.978658e-01	9.974841e-01	9.973681e-01	9.973163e-01	9.972648e-01	9.971854e-01	9.970631e-01	9.968970e-01	9.966945e-01	9.964606e-01	9.961973e-01	9.959018e-01	9.955591e-01	9.951336e-01	9.945568e-01	9.937122e-01	9.924456e-01	9.906529e-01	9.884179e-01	9.860934e-01	9.841643e-01	9.829286e-01	9.824002e-01	9.824529e-01	9.836096e-01	9.866452e-01	9.916234e-01	9.982435e-01	1.005983e+00	1.014183e+00	1.021977e+00	1.028376e+00	1.032648e+00	1.034654e+00	1.034776e+00	1.031928e+00	1.023827e+00	1.013133e+00	1.005290e+00	1.001673e+00	1.000456e+00	1.000114e+00	1.000027e+00	1.000006e+00	1.000001e+00	1.000000e+00	1.000000e+00	1.000000e+00	1.000000e+00	1.000000e+00	1.000000e+00	1.000000e+00	9.964744e-01	9.964615e-01	9.964709e-01	9.964447e-01	9.964192e-01	9.963845e-01	9.963405e-01	9.962877e-01	9.962294e-01	9.961629e-01	9.960876e-01	9.960028e-01	9.959055e-01	9.957936e-01	9.956639e-01	9.955139e-01	9.953426e-01	9.951476e-01	9.949192e-01	9.946594e-01	9.943599e-01	9.939980e-01	9.935356e-01	9.928939e-01	9.919486e-01	9.905597e-01	9.886667e-01	9.864086e-01	9.841327e-01	9.822742e-01	9.812439e-01	9.810466e-01	9.812865e-01	9.827235e-01	9.860755e-01	9.912910e-01	9.979924e-01	1.005652e+00	1.013642e+00	1.021188e+00	1.027457e+00	1.031477e+00	1.032707e+00	1.032455e+00	1.029396e+00	1.021256e+00	1.010301e+00	1.002234e+00	9.987421e-01	9.976899e-01	9.974166e-01	9.973357e-01	9.972923e-01	9.972431e-01	9.971644e-01	9.970416e-01	9.968736e-01	9.966682e-01	9.964316e-01	9.961654e-01	9.958655e-01	9.955171e-01	9.950834e-01	9.944937e-01	9.936316e-01	9.923494e-01	9.905436e-01	9.882988e-01	9.859460e-01	9.839396e-01	9.827187e-01	9.823861e-01	9.825066e-01	9.836501e-01	9.866867e-01	9.917044e-01	9.983665e-01	1.006140e+00	1.014358e+00	1.022200e+00	1.028806e+00	1.033236e+00	1.034763e+00	1.034654e+00	1.032019e+00	1.024281e+00	1.013208e+00	1.004825e+00	1.001273e+00	1.000285e+00	1.000061e+00	1.000013e+00	1.000003e+00	1.000001e+00	1.000000e+00	1.000000e+00	1.000000e+00	1.000000e+00	1.000000e+00	1.000000e+00	1.000000e+00	9.964811e-01	9.964709e-01	9.964841e-01	9.964567e-01	9.964304e-01	9.963943e-01	9.963486e-01	9.962937e-01	9.962342e-01	9.961666e-01	9.960904e-01	9.960048e-01	9.959068e-01	9.957943e-01	9.956646e-01	9.955153e-01	9.953442e-01	9.951489e-01	9.949204e-01	9.946606e-01	9.943572e-01	9.939818e-01	9.934933e-01	9.928104e-01	9.918213e-01	9.904187e-01	9.885701e-01	9.864056e-01	9.842060e-01	9.824421e-01	9.816087e-01	9.814719e-01	9.817438e-01	9.831737e-01	9.864611e-01	9.916346e-01	9.981783e-01	1.005627e+00	1.013427e+00	1.020957e+00	1.027290e+00	1.030949e+00	1.031861e+00	1.031562e+00	1.028784e+00	1.021308e+00	1.010854e+00	1.002681e+00	9.989133e-01	9.977363e-01	9.974285e-01	9.973370e-01	9.972900e-01	9.972401e-01	9.971627e-01	9.970419e-01	9.968752e-01	9.966705e-01	9.964338e-01	9.961660e-01	9.958608e-01	9.955009e-01	9.950487e-01	9.944269e-01	9.935226e-01	9.922133e-01	9.904330e-01	9.882691e-01	9.859929e-01	9.840667e-01	9.830432e-01	9.828191e-01	9.829705e-01	9.841373e-01	9.871137e-01	9.920872e-01	9.985868e-01	1.006134e+00	1.014138e+00	1.021941e+00	1.028640e+00	1.032763e+00	1.033903e+00	1.033734e+00	1.031324e+00	1.024258e+00	1.013795e+00	1.005311e+00	1.001419e+00	1.000294e+00	1.000053e+00	1.000009e+00	1.000002e+00	1.000000e+00	1.000000e+00	1.000000e+00	1.000000e+00	1.000000e+00	1.000000e+00	1.000000e+00	1.000000e+00	9.964553e-01	9.964447e-01	9.964567e-01	9.964307e-01	9.964045e-01	9.963688e-01	9.963241e-01	9.962699e-01	9.962105e-01	9.961432e-01	9.960671e-01	9.959811e-01	9.958822e-01	9.957683e-01	9.956365e-01	9.954850e-01	9.953111e-01	9.951139e-01	9.948808e-01	9.946158e-01	9.943008e-01	9.939024e-01	9.933728e-01	9.926241e-01	9.915581e-01	9.900971e-01	9.882528e-01	9.861389e-01	9.840602e-01	9.825785e-01	9.819880e-01	9.819185e-01	9.822921e-01	9.838712e-01	9.872337e-01	9.923402e-01	9.987319e-01	1.005959e+00	1.013618e+00	1.021178e+00	1.027302e+00	1.030342e+00	1.030953e+00	1.030562e+00	1.027782e+00	1.020748e+00	1.011056e+00	1.003220e+00	9.992612e-01	9.978587e-01	9.974471e-01	9.973223e-01	9.972637e-01	9.972088e-01	9.971298e-01	9.970088e-01	9.968416e-01	9.966354e-01	9.963962e-01	9.961239e-01	9.958091e-01	9.954299e-01	9.949431e-01	9.942657e-01	9.932871e-01	9.919085e-01	9.901098e-01	9.879753e-01	9.857926e-01	9.841266e-01	9.833958e-01	9.832585e-01	9.834990e-01	9.848413e-01	9.879393e-01	9.928576e-01	9.992096e-01	1.006506e+00	1.014331e+00	1.022159e+00	1.028723e+00	1.032205e+00	1.033009e+00	1.032738e+00	1.030315e+00	1.023694e+00	1.014032e+00	1.005870e+00	1.001746e+00	1.000396e+00	1.000075e+00	1.000013e+00	1.000002e+00	1.000000e+00	1.000000e+00	1.000000e+00	1.000000e+00	1.000000e+00	1.000000e+00	1.000000e+00	1.000000e+00	9.964316e-01	9.964192e-01	9.964304e-01	9.964045e-01	9.963776e-01	9.963416e-01	9.962967e-01	9.962411e-01	9.961793e-01	9.961106e-01	9.960330e-01	9.959452e-01	9.958442e-01	9.957277e-01	9.955931e-01	9.954387e-01	9.952617e-01	9.950605e-01	9.948243e-01	9.945525e-01	9.942221e-01	9.937886e-01	9.931975e-01	9.923628e-01	9.912030e-01	9.896707e-01	9.878109e-01	9.857749e-01	9.839652e-01	9.828798e-01	9.825130e-01	9.825235e-01	9.830350e-01	9.848013e-01	9.882882e-01	9.933232e-01	9.994805e-01	1.006420e+00	1.013973e+00	1.021427e+00	1.027003e+00	1.029432e+00	1.029792e+00	1.029310e+00	1.026455e+00	1.019870e+00	1.011185e+00	1.003935e+00	9.998176e-01	9.980878e-01	9.975020e-01	9.973141e-01	9.972338e-01	9.971699e-01	9.970875e-01	9.969663e-01	9.967989e-01	9.965907e-01	9.963479e-01	9.960686e-01	9.957407e-01	9.953334e-01	9.947888e-01	9.940328e-01	9.929626e-01	9.915029e-01	9.896596e-01	9.875700e-01	9.856237e-01	9.843742e-01	9.838922e-01	9.838546e-01	9.842321e-01	9.857771e-01	9.890390e-01	9.939339e-01	1.000046e+00	1.007024e+00	1.014698e+00	1.022443e+00	1.028505e+00	1.031347e+00	1.031847e+00	1.031488e+00	1.028989e+00	1.022791e+00	1.014143e+00	1.006606e+00	1.002294e+00	1.000599e+00	1.000122e+00	1.000021e+00	1.000003e+00	1.000000e+00	1.000000e+00	1.000000e+00	1.000000e+00	1.000000e+00	1.000000e+00	1.000000e+00	1.000000e+00	9.963982e-01	9.963845e-01	9.963943e-01	9.963688e-01	9.963416e-01	9.963054e-01	9.962608e-01	9.962045e-01	9.961408e-01	9.960704e-01	9.959909e-01	9.959004e-01	9.957965e-01	9.956762e-01	9.955373e-01	9.953783e-01	9.951962e-01	9.949891e-01	9.947467e-01	9.944645e-01	9.941105e-01	9.936273e-01	9.929504e-01	9.920099e-01	9.907351e-01	9.891233e-01	9.872474e-01	9.853828e-01	9.839777e-01	9.832883e-01	9.831563e-01	9.832642e-01	9.839861e-01	9.860110e-01	9.896227e-01	9.945461e-01	1.000405e+00	1.007087e+00	1.014489e+00	1.021608e+00	1.026438e+00	1.028250e+00	1.028440e+00	1.027806e+00	1.024820e+00	1.018737e+00	1.011204e+00	1.004741e+00	1.000544e+00	9.984272e-01	9.975913e-01	9.973078e-01	9.971951e-01	9.971180e-01	9.970299e-01	9.969074e-01	9.967404e-01	9.965303e-01	9.962822e-01	9.959940e-01	9.956448e-01	9.951937e-01	9.945760e-01	9.937029e-01	9.925041e-01	9.909471e-01	9.890728e-01	9.871175e-01	9.855509e-01	9.847332e-01	9.845236e-01	9.845770e-01	9.851652e-01	9.869867e-01	9.904218e-01	9.952558e-01	1.001079e+00	1.007755e+00	1.015253e+00	1.022689e+00	1.028018e+00	1.030204e+00	1.030485e+00	1.030008e+00	1.027370e+00	1.021627e+00	1.014131e+00	1.007436e+00	1.003037e+00	1.000923e+00	1.000208e+00	1.000037e+00	1.000006e+00	1.000001e+00	1.000000e+00	1.000000e+00	1.000000e+00	1.000000e+00	1.000000e+00	1.000000e+00	1.000000e+00	9.963542e-01	9.963405e-01	9.963486e-01	9.963241e-01	9.962967e-01	9.962608e-01	9.962170e-01	9.961614e-01	9.960966e-01	9.960244e-01	9.959417e-01	9.958471e-01	9.957389e-01	9.956135e-01	9.954689e-01	9.953033e-01	9.951144e-01	9.949000e-01	9.946501e-01	9.943493e-01	9.939548e-01	9.934030e-01	9.926189e-01	9.915325e-01	9.901202e-01	9.884207e-01	9.866065e-01	9.850591e-01	9.841681e-01	9.838574e-01	9.838851e-01	9.841525e-01	9.851772e-01	9.874916e-01	9.911973e-01	9.959673e-01	1.001536e+00	1.007957e+00	1.015057e+00	1.021564e+00	1.025605e+00	1.026832e+00	1.026891e+00	1.026048e+00	1.022968e+00	1.017483e+00	1.011177e+00	1.005588e+00	1.001406e+00	9.988798e-01	9.977296e-01	9.973099e-01	9.971508e-01	9.970558e-01	9.969591e-01	9.968334e-01	9.966654e-01	9.964533e-01	9.961986e-01	9.958946e-01	9.955125e-01	9.950006e-01	9.942803e-01	9.932713e-01	9.919222e-01	9.902483e-01	9.883920e-01	9.867135e-01	9.856632e-01	9.852557e-01	9.852465e-01	9.854442e-01	9.863325e-01	9.884748e-01	9.920550e-01	9.967788e-01	1.002323e+00	1.008711e+00	1.015892e+00	1.022751e+00	1.027267e+00	1.028809e+00	1.028935e+00	1.028279e+00	1.025536e+00	1.020332e+00	1.014058e+00	1.008298e+00	1.003925e+00	1.001368e+00	1.000339e+00	1.000063e+00	1.000010e+00	1.000001e+00	1.000000e+00	1.000000e+00	1.000000e+00	1.000000e+00	1.000000e+00	1.000000e+00	1.000000e+00	9.963011e-01	9.962877e-01	9.962937e-01	9.962699e-01	9.962411e-01	9.962045e-01	9.961614e-01	9.961071e-01	9.960422e-01	9.959686e-01	9.958832e-01	9.957847e-01	9.956721e-01	9.955416e-01	9.953904e-01	9.952163e-01	9.950180e-01	9.947931e-01	9.945317e-01	9.942009e-01	9.937497e-01	9.930965e-01	9.921730e-01	9.909245e-01	9.893590e-01	9.875980e-01	9.859858e-01	9.849430e-01	9.845227e-01	9.845411e-01	9.846917e-01	9.852401e-01	9.866404e-01	9.892335e-01	9.929671e-01	9.975619e-01	1.002882e+00	1.008987e+00	1.015560e+00	1.021218e+00	1.024406e+00	1.025189e+00	1.025124e+00	1.024065e+00	1.020978e+00	1.016220e+00	1.011142e+00	1.006422e+00	1.002340e+00	9.994241e-01	9.979078e-01	9.973203e-01	9.971018e-01	9.969854e-01	9.968797e-01	9.967491e-01	9.965784e-01	9.963630e-01	9.960990e-01	9.957690e-01	9.953377e-01	9.947353e-01	9.938782e-01	9.926984e-01	9.911801e-01	9.894162e-01	9.877026e-01	9.864863e-01	9.859657e-01	9.859266e-01	9.860310e-01	9.865001e-01	9.877740e-01	9.902383e-01	9.938996e-01	9.984766e-01	1.003782e+00	1.009858e+00	1.016498e+00	1.022509e+00	1.026160e+00	1.027179e+00	1.027186e+00	1.026329e+00	1.023557e+00	1.019016e+00	1.013971e+00	1.009148e+00	1.004902e+00	1.001922e+00	1.000519e+00	1.000101e+00	1.000016e+00	1.000002e+00	1.000000e+00	1.000000e+00	1.000000e+00	1.000000e+00	1.000000e+00	1.000000e+00	1.000000e+00	9.962441e-01	9.962294e-01	9.962342e-01	9.962105e-01	9.961793e-01	9.961408e-01	9.960966e-01	9.960422e-01	9.959756e-01	9.958995e-01	9.958108e-01	9.957077e-01	9.955894e-01	9.954523e-01	9.952937e-01	9.951120e-01	9.949032e-01	9.946650e-01	9.943825e-01	9.940018e-01	9.934676e-01	9.926843e-01	9.915847e-01	9.901418e-01	9.884309e-01	9.867456e-01	9.855643e-01	9.851019e-01	9.850871e-01	9.852442e-01	9.856537e-01	9.865870e-01	9.883861e-01	9.912029e-01	9.949015e-01	9.993093e-01	1.004401e+00	1.010086e+00	1.015866e+00	1.020554e+00	1.022883e+00	1.023328e+00	1.023138e+00	1.021900e+00	1.018961e+00	1.015060e+00	1.011134e+00	1.007224e+00	1.003292e+00	1.000027e+00	9.981219e-01	9.973332e-01	9.970419e-01	9.968993e-01	9.967841e-01	9.966501e-01	9.964764e-01	9.962549e-01	9.959760e-01	9.956116e-01	9.951041e-01	9.943765e-01	9.933438e-01	9.919574e-01	9.902694e-01	9.885107e-01	9.871589e-01	9.865901e-01	9.864904e-01	9.866076e-01	9.869602e-01	9.878080e-01	9.895034e-01	9.922454e-01	9.959225e-01	1.000333e+00	1.005413e+00	1.011089e+00	1.016953e+00	1.021938e+00	1.024709e+00	1.025339e+00	1.025221e+00	1.024203e+00	1.021541e+00	1.017795e+00	1.013911e+00	1.009963e+00	1.005911e+00	1.002557e+00	1.000747e+00	1.000152e+00	1.000024e+00	1.000004e+00	1.000001e+00	1.000000e+00	1.000000e+00	1.000000e+00	1.000000e+00	1.000000e+00	1.000000e+00	9.961797e-01	9.961629e-01	9.961666e-01	9.961432e-01	9.961106e-01	9.960704e-01	9.960244e-01	9.959686e-01	9.958995e-01	9.958203e-01	9.957274e-01	9.956183e-01	9.954914e-01	9.953436e-01	9.951737e-01	9.949813e-01	9.947626e-01	9.945061e-01	9.941866e-01	9.937341e-01	9.930759e-01	9.921191e-01	9.908043e-01	9.891481e-01	9.873791e-01	9.860611e-01	9.855426e-01	9.854885e-01	9.856715e-01	9.860773e-01	9.868526e-01	9.882285e-01	9.903977e-01	9.933593e-01	9.969813e-01	1.001195e+00	1.006004e+00	1.011137e+00	1.015872e+00	1.019409e+00	1.021037e+00	1.021241e+00	1.020938e+00	1.019616e+00	1.017041e+00	1.014085e+00	1.011195e+00	1.007984e+00	1.004218e+00	1.000653e+00	9.983624e-01	9.973538e-01	9.969760e-01	9.968003e-01	9.966698e-01	9.965294e-01	9.963524e-01	9.961213e-01	9.958144e-01	9.953900e-01	9.947767e-01	9.938813e-01	9.926263e-01	9.910063e-01	9.891938e-01	9.877144e-01	9.870538e-01	9.869178e-01	9.870551e-01	9.874071e-01	9.881173e-01	9.894082e-01	9.915081e-01	9.944557e-01	9.981021e-01	1.002332e+00	1.007138e+00	1.012288e+00	1.017144e+00	1.020925e+00	1.022915e+00	1.023286e+00	1.023062e+00	1.021958e+00	1.019606e+00	1.016754e+00	1.013919e+00	1.010730e+00	1.006902e+00	1.003237e+00	1.001014e+00	1.000218e+00	1.000036e+00	1.000005e+00	1.000001e+00	1.000000e+00	1.000000e+00	1.000000e+00	1.000000e+00	1.000000e+00	1.000000e+00	9.961073e-01	9.960876e-01	9.960904e-01	9.960671e-01	9.960330e-01	9.959909e-01	9.959417e-01	9.958832e-01	9.958108e-01	9.957274e-01	9.956296e-01	9.955132e-01	9.953768e-01	9.952184e-01	9.950371e-01	9.948325e-01	9.945980e-01	9.943086e-01	9.939222e-01	9.933633e-01	9.925408e-01	9.913585e-01	9.897686e-01	9.879354e-01	9.864711e-01	9.858454e-01	9.857690e-01	9.859432e-01	9.863660e-01	9.871277e-01	9.883479e-01	9.901726e-01	9.926430e-01	9.956712e-01	9.991871e-01	1.003186e+00	1.007584e+00	1.011959e+00	1.015532e+00	1.017829e+00	1.018844e+00	1.018935e+00	1.018559e+00	1.017327e+00	1.015353e+00	1.013341e+00	1.011324e+00	1.008685e+00	1.005077e+00	1.001263e+00	9.986132e-01	9.973795e-01	9.969059e-01	9.966917e-01	9.965430e-01	9.963927e-01	9.962073e-01	9.959579e-01	9.956062e-01	9.950898e-01	9.943185e-01	9.931921e-01	9.916512e-01	9.898126e-01	9.881961e-01	9.873894e-01	9.872343e-01	9.873489e-01	9.877154e-01	9.884182e-01	9.895632e-01	9.913156e-01	9.937653e-01	9.968411e-01	1.000424e+00	1.004450e+00	1.008851e+00	1.013279e+00	1.016954e+00	1.019476e+00	1.020743e+00	1.021016e+00	1.020735e+00	1.019705e+00	1.017897e+00	1.015955e+00	1.014005e+00	1.011444e+00	1.007833e+00	1.003923e+00	1.001308e+00	1.000296e+00	1.000051e+00	1.000008e+00	1.000001e+00	1.000000e+00	1.000000e+00	1.000000e+00	1.000000e+00	1.000000e+00	1.000000e+00	9.960255e-01	9.960028e-01	9.960048e-01	9.959811e-01	9.959452e-01	9.959004e-01	9.958471e-01	9.957847e-01	9.957077e-01	9.956183e-01	9.955132e-01	9.953878e-01	9.952409e-01	9.950724e-01	9.948808e-01	9.946605e-01	9.943963e-01	9.940552e-01	9.935711e-01	9.928586e-01	9.918094e-01	9.903117e-01	9.884486e-01	9.868186e-01	9.860566e-01	9.859598e-01	9.860887e-01	9.864884e-01	9.872617e-01	9.884655e-01	9.901655e-01	9.923931e-01	9.950778e-01	9.981150e-01	1.001489e+00	1.005214e+00	1.009010e+00	1.012307e+00	1.014706e+00	1.015862e+00	1.016327e+00	1.016381e+00	1.016082e+00	1.015227e+00	1.014001e+00	1.012850e+00	1.011507e+00	1.009314e+00	1.005834e+00	1.001822e+00	9.988558e-01	9.974030e-01	9.968273e-01	9.965694e-01	9.963998e-01	9.962358e-01	9.960345e-01	9.957518e-01	9.953265e-01	9.946693e-01	9.936666e-01	9.922166e-01	9.903749e-01	9.886164e-01	9.876552e-01	9.874624e-01	9.875278e-01	9.878633e-01	9.885740e-01	9.897064e-01	9.913280e-01	9.935145e-01	9.962407e-01	9.993817e-01	1.002853e+00	1.006619e+00	1.010424e+00	1.013806e+00	1.016345e+00	1.017656e+00	1.018254e+00	1.018485e+00	1.018306e+00	1.017629e+00	1.016518e+00	1.015429e+00	1.014161e+00	1.012096e+00	1.008673e+00	1.004579e+00	1.001615e+00	1.000385e+00	1.000069e+00	1.000011e+00	1.000002e+00	1.000000e+00	1.000000e+00	1.000000e+00	1.000000e+00	1.000000e+00	1.000000e+00	9.959308e-01	9.959055e-01	9.959068e-01	9.958822e-01	9.958442e-01	9.957965e-01	9.957389e-01	9.956721e-01	9.955894e-01	9.954914e-01	9.953768e-01	9.952409e-01	9.950835e-01	9.949043e-01	9.946988e-01	9.944539e-01	9.941425e-01	9.937147e-01	9.930882e-01	9.921520e-01	9.907641e-01	9.889188e-01	9.871421e-01	9.862305e-01	9.860976e-01	9.861790e-01	9.865065e-01	9.872376e-01	9.884479e-01	9.901418e-01	9.922982e-01	9.948420e-01	9.976497e-01	1.000649e+00	1.003849e+00	1.007150e+00	1.010098e+00	1.012156e+00	1.013240e+00	1.013545e+00	1.013563e+00	1.013591e+00	1.013688e+00	1.013465e+00	1.013032e+00	1.012567e+00	1.011715e+00	1.009854e+00	1.006464e+00	1.002304e+00	9.990756e-01	9.974196e-01	9.967384e-01	9.964327e-01	9.962383e-01	9.960546e-01	9.958230e-01	9.954780e-01	9.949280e-01	9.940457e-01	9.926976e-01	9.908790e-01	9.890114e-01	9.879008e-01	9.876433e-01	9.876641e-01	9.879224e-01	9.885798e-01	9.897138e-01	9.913240e-01	9.934173e-01	9.959705e-01	9.988842e-01	1.002035e+00	1.005352e+00	1.008712e+00	1.011691e+00	1.013782e+00	1.015044e+00	1.015465e+00	1.015563e+00	1.015667e+00	1.015947e+00	1.015865e+00	1.015541e+00	1.015125e+00	1.014371e+00	1.012672e+00	1.009402e+00	1.005177e+00	1.001921e+00	1.000481e+00	1.000090e+00	1.000014e+00	1.000002e+00	1.000000e+00	1.000000e+00	1.000000e+00	1.000000e+00	1.000000e+00	1.000000e+00	9.958218e-01	9.957936e-01	9.957943e-01	9.957683e-01	9.957277e-01	9.956762e-01	9.956135e-01	9.955416e-01	9.954523e-01	9.953436e-01	9.952184e-01	9.950724e-01	9.949043e-01	9.947108e-01	9.944827e-01	9.941950e-01	9.938063e-01	9.932448e-01	9.924003e-01	9.911152e-01	9.893174e-01	9.874448e-01	9.863872e-01	9.861971e-01	9.862492e-01	9.864944e-01	9.871245e-01	9.882885e-01	9.899942e-01	9.921737e-01	9.947127e-01	9.974647e-01	1.000323e+00	1.003265e+00	1.006242e+00	1.008847e+00	1.010522e+00	1.011313e+00	1.011175e+00	1.010899e+00	1.010678e+00	1.010726e+00	1.011384e+00	1.012281e+00	1.012505e+00	1.012423e+00	1.011917e+00	1.010273e+00	1.006947e+00	1.002690e+00	9.992598e-01	9.974243e-01	9.966383e-01	9.962800e-01	9.960536e-01	9.958364e-01	9.955476e-01	9.950894e-01	9.943225e-01	9.930829e-01	9.913077e-01	9.893733e-01	9.881351e-01	9.877934e-01	9.877858e-01	9.879604e-01	9.885112e-01	9.895880e-01	9.912018e-01	9.933018e-01	9.958178e-01	9.986430e-01	1.001661e+00	1.004790e+00	1.007905e+00	1.010587e+00	1.012308e+00	1.013198e+00	1.013126e+00	1.012920e+00	1.012730e+00	1.012818e+00	1.013588e+00	1.014687e+00	1.015061e+00	1.015000e+00	1.014592e+00	1.013150e+00	1.010001e+00	1.005700e+00	1.002213e+00	1.000582e+00	1.000113e+00	1.000018e+00	1.000003e+00	1.000000e+00	1.000000e+00	1.000000e+00	1.000000e+00	1.000000e+00	1.000000e+00	9.956952e-01	9.956639e-01	9.956646e-01	9.956365e-01	9.955931e-01	9.955373e-01	9.954689e-01	9.953904e-01	9.952937e-01	9.951737e-01	9.950371e-01	9.948808e-01	9.946988e-01	9.944827e-01	9.942125e-01	9.938515e-01	9.933379e-01	9.925650e-01	9.913685e-01	9.896349e-01	9.877214e-01	9.865280e-01	9.862624e-01	9.863032e-01	9.864850e-01	9.869969e-01	9.880507e-01	9.897186e-01	9.919267e-01	9.945295e-01	9.973447e-01	1.000227e+00	1.003150e+00	1.006056e+00	1.008468e+00	1.009773e+00	1.010151e+00	1.009749e+00	1.008707e+00	1.007941e+00	1.007673e+00	1.008001e+00	1.009567e+00	1.011556e+00	1.012358e+00	1.012417e+00	1.012073e+00	1.010557e+00	1.007283e+00	1.002974e+00	9.994023e-01	9.974124e-01	9.965242e-01	9.961061e-01	9.958330e-01	9.955551e-01	9.951573e-01	9.944878e-01	9.933553e-01	9.916452e-01	9.896851e-01	9.883537e-01	9.879339e-01	9.879014e-01	9.880126e-01	9.884385e-01	9.893940e-01	9.909557e-01	9.930698e-01	9.956258e-01	9.984811e-01	1.001502e+00	1.004621e+00	1.007727e+00	1.010314e+00	1.011729e+00	1.012102e+00	1.011804e+00	1.010810e+00	1.010034e+00	1.009763e+00	1.010088e+00	1.011736e+00	1.013970e+00	1.014939e+00	1.015044e+00	1.014806e+00	1.013516e+00	1.010467e+00	1.006138e+00	1.002484e+00	1.000683e+00	1.000138e+00	1.000023e+00	1.000004e+00	1.000001e+00	1.000000e+00	1.000000e+00	1.000000e+00	1.000000e+00	1.000000e+00	9.955488e-01	9.955139e-01	9.955153e-01	9.954850e-01	9.954387e-01	9.953783e-01	9.953033e-01	9.952163e-01	9.951120e-01	9.949813e-01	9.948325e-01	9.946605e-01	9.944539e-01	9.941950e-01	9.938515e-01	9.933685e-01	9.926477e-01	9.915210e-01	9.898561