# vtk DataFile Version 3.0
vtk output
ASCII
DATASET STRUCTURED_GRID
DIMENSIONS 101 101 1
POINTS 10201 double
0.000000e+00	0.000000e+00	0.0	1.000000e-02	0.000000e+00	0.0	2.000000e-02	0.000000e+00	0.0	3.000000e-02	0.000000e+00	0.0	4.000000e-02	0.000000e+00	0.0	5.000000e-02	0.000000e+00	0.0	6.000000e-02	0.000000e+00	0.0	7.000000e-02	0.000000e+00	0.0	8.000000e-02	0.000000e+00	0.0	9.000000e-02	0.000000e+00	0.0	1.000000e-01	0.000000e+00	0.0	1.100000e-01	0.000000e+00	0.0	1.200000e-01	0.000000e+00	0.0	1.300000e-01	0.000000e+00	0.0	1.400000e-01	0.000000e+00	0.0	1.500000e-01	0.000000e+00	0.0	1.600000e-01	0.000000e+00	0.0	1.700000e-01	0.000000e+00	0.0	1.800000e-01	0.000000e+00	0.0	1.900000e-01	0.000000e+00	0.0	2.000000e-01	0.000000e+00	0.0	2.100000e-01	0.000000e+00	0.0	2.200000e-01	0.000000e+00	0.0	2.300000e-01	0.000000e+00	0.0	2.400000e-01	0.000000e+00	0.0	2.500000e-01	0.000000e+00	0.0	2.600000e-01	0.000000e+00	0.0	2.700000e-01	0.000000e+00	0.0	2.800000e-01	0.000000e+00	0.0	2.900000e-01	0.000000e+00	0.0	3.000000e-01	0.000000e+00	0.0	3.100000e-01	0.000000e+00	0.0	3.200000e-01	0.000000e+00	0.0	3.300000e-01	0.000000e+00	0.0	3.400000e-01	0.000000e+00	0.0	3.500000e-01	0.000000e+00	0.0	3.600000e-01	0.000000e+00	0.0	3.700000e-01	0.000000e+00	0.0	3.800000e-01	0.000000e+00	0.0	3.900000e-01	0.000000e+00	0.0	4.000000e-01	0.000000e+00	0.0	4.100000e-01	0.000000e+00	0.0	4.200000e-01	0.000000e+00	0.0	4.300000e-01	0.000000e+00	0.0	4.400000e-01	0.000000e+00	0.0	4.500000e-01	0.000000e+00	0.0	4.600000e-01	0.000000e+00	0.0	4.700000e-01	0.000000e+00	0.0	4.800000e-01	0.000000e+00	0.0	4.900000e-01	0.000000e+00	0.0	5.000000e-01	0.000000e+00	0.0	5.100000e-01	0.000000e+00	0.0	5.200000e-01	0.000000e+00	0.0	5.300000e-01	0.000000e+00	0.0	5.400000e-01	0.000000e+00	0.0	5.500000e-01	0.000000e+00	0.0	5.600000e-01	0.000000e+00	0.0	5.700000e-01	0.000000e+00	0.0	5.800000e-01	0.000000e+00	0.0	5.900000e-01	0.000000e+00	0.0	6.000000e-01	0.000000e+00	0.0	6.100000e-01	0.000000e+00	0.0	6.200000e-01	0.000000e+00	0.0	6.300000e-01	0.000000e+00	0.0	6.400000e-01	0.000000e+00	0.0	6.500000e-01	0.000000e+00	0.0	6.600000e-01	0.000000e+00	0.0	6.700000e-01	0.000000e+00	0.0	6.800000e-01	0.000000e+00	0.0	6.900000e-01	0.000000e+00	0.0	7.000000e-01	0.000000e+00	0.0	7.100000e-01	0.000000e+00	0.0	7.200000e-01	0.000000e+00	0.0	7.300000e-01	0.000000e+00	0.0	7.400000e-01	0.000000e+00	0.0	7.500000e-01	0.000000e+00	0.0	7.600000e-01	0.000000e+00	0.0	7.700000e-01	0.000000e+00	0.0	7.800000e-01	0.000000e+00	0.0	7.900000e-01	0.000000e+00	0.0	8.000000e-01	0.000000e+00	0.0	8.100000e-01	0.000000e+00	0.0	8.200000e-01	0.000000e+00	0.0	8.300000e-01	0.000000e+00	0.0	8.400000e-01	0.000000e+00	0.0	8.500000e-01	0.000000e+00	0.0	8.600000e-01	0.000000e+00	0.0	8.700000e-01	0.000000e+00	0.0	8.800000e-01	0.000000e+00	0.0	8.900000e-01	0.000000e+00	0.0	9.000000e-01	0.000000e+00	0.0	9.100000e-01	0.000000e+00	0.0	9.200000e-01	0.000000e+00	0.0	9.300000e-01	0.000000e+00	0.0	9.400000e-01	0.000000e+00	0.0	9.500000e-01	0.000000e+00	0.0	9.600000e-01	0.000000e+00	0.0	9.700000e-01	0.000000e+00	0.0	9.800000e-01	0.000000e+00	0.0	9.900000e-01	0.000000e+00	0.0	1.000000e+00	0.000000e+00	0.0	0.000000e+00	1.000000e-02	0.0	1.000000e-02	1.000000e-02	0.0	2.000000e-02	1.000000e-02	0.0	3.000000e-02	1.000000e-02	0.0	4.000000e-02	1.000000e-02	0.0	5.000000e-02	1.000000e-02	0.0	6.000000e-02	1.000000e-02	0.0	7.000000e-02	1.000000e-02	0.0	8.000000e-02	1.000000e-02	0.0	9.000000e-02	1.000000e-02	0.0	1.000000e-01	1.000000e-02	0.0	1.100000e-01	1.000000e-02	0.0	1.200000e-01	1.000000e-02	0.0	1.300000e-01	1.000000e-02	0.0	1.400000e-01	1.000000e-02	0.0	1.500000e-01	1.000000e-02	0.0	1.600000e-01	1.000000e-02	0.0	1.700000e-01	1.000000e-02	0.0	1.800000e-01	1.000000e-02	0.0	1.900000e-01	1.000000e-02	0.0	2.000000e-01	1.000000e-02	0.0	2.100000e-01	1.000000e-02	0.0	2.200000e-01	1.000000e-02	0.0	2.300000e-01	1.000000e-02	0.0	2.400000e-01	1.000000e-02	0.0	2.500000e-01	1.000000e-02	0.0	2.600000e-01	1.000000e-02	0.0	2.700000e-01	1.000000e-02	0.0	2.800000e-01	1.000000e-02	0.0	2.900000e-01	1.000000e-02	0.0	3.000000e-01	1.000000e-02	0.0	3.100000e-01	1.000000e-02	0.0	3.200000e-01	1.000000e-02	0.0	3.300000e-01	1.000000e-02	0.0	3.400000e-01	1.000000e-02	0.0	3.500000e-01	1.000000e-02	0.0	3.600000e-01	1.000000e-02	0.0	3.700000e-01	1.000000e-02	0.0	3.800000e-01	1.000000e-02	0.0	3.900000e-01	1.000000e-02	0.0	4.000000e-01	1.000000e-02	0.0	4.100000e-01	1.000000e-02	0.0	4.200000e-01	1.000000e-02	0.0	4.300000e-01	1.000000e-02	0.0	4.400000e-01	1.000000e-02	0.0	4.500000e-01	1.000000e-02	0.0	4.600000e-01	1.000000e-02	0.0	4.700000e-01	1.000000e-02	0.0	4.800000e-01	1.000000e-02	0.0	4.900000e-01	1.000000e-02	0.0	5.000000e-01	1.000000e-02	0.0	5.100000e-01	1.000000e-02	0.0	5.200000e-01	1.000000e-02	0.0	5.300000e-01	1.000000e-02	0.0	5.400000e-01	1.000000e-02	0.0	5.500000e-01	1.000000e-02	0.0	5.600000e-01	1.000000e-02	0.0	5.700000e-01	1.000000e-02	0.0	5.800000e-01	1.000000e-02	0.0	5.900000e-01	1.000000e-02	0.0	6.000000e-01	1.000000e-02	0.0	6.100000e-01	1.000000e-02	0.0	6.200000e-01	1.000000e-02	0.0	6.300000e-01	1.000000e-02	0.0	6.400000e-01	1.000000e-02	0.0	6.500000e-01	1.000000e-02	0.0	6.600000e-01	1.000000e-02	0.0	6.700000e-01	1.000000e-02	0.0	6.800000e-01	1.000000e-02	0.0	6.900000e-01	1.000000e-02	0.0	7.000000e-01	1.000000e-02	0.0	7.100000e-01	1.000000e-02	0.0	7.200000e-01	1.000000e-02	0.0	7.300000e-01	1.000000e-02	0.0	7.400000e-01	1.000000e-02	0.0	7.500000e-01	1.000000e-02	0.0	7.600000e-01	1.000000e-02	0.0	7.700000e-01	1.000000e-02	0.0	7.800000e-01	1.000000e-02	0.0	7.900000e-01	1.000000e-02	0.0	8.000000e-01	1.000000e-02	0.0	8.100000e-01	1.000000e-02	0.0	8.200000e-01	1.000000e-02	0.0	8.300000e-01	1.000000e-02	0.0	8.400000e-01	1.000000e-02	0.0	8.500000e-01	1.000000e-02	0.0	8.600000e-01	1.000000e-02	0.0	8.700000e-01	1.000000e-02	0.0	8.800000e-01	1.000000e-02	0.0	8.900000e-01	1.000000e-02	0.0	9.000000e-01	1.000000e-02	0.0	9.100000e-01	1.000000e-02	0.0	9.200000e-01	1.000000e-02	0.0	9.300000e-01	1.000000e-02	0.0	9.400000e-01	1.000000e-02	0.0	9.500000e-01	1.000000e-02	0.0	9.600000e-01	1.000000e-02	0.0	9.700000e-01	1.000000e-02	0.0	9.800000e-01	1.000000e-02	0.0	9.900000e-01	1.000000e-02	0.0	1.000000e+00	1.000000e-02	0.0	0.000000e+00	2.000000e-02	0.0	1.000000e-02	2.000000e-02	0.0	2.000000e-02	2.000000e-02	0.0	3.000000e-02	2.000000e-02	0.0	4.000000e-02	2.000000e-02	0.0	5.000000e-02	2.000000e-02	0.0	6.000000e-02	2.000000e-02	0.0	7.000000e-02	2.000000e-02	0.0	8.000000e-02	2.000000e-02	0.0	9.000000e-02	2.000000e-02	0.0	1.000000e-01	2.000000e-02	0.0	1.100000e-01	2.000000e-02	0.0	1.200000e-01	2.000000e-02	0.0	1.300000e-01	2.000000e-02	0.0	1.400000e-01	2.000000e-02	0.0	1.500000e-01	2.000000e-02	0.0	1.600000e-01	2.000000e-02	0.0	1.700000e-01	2.000000e-02	0.0	1.800000e-01	2.000000e-02	0.0	1.900000e-01	2.000000e-02	0.0	2.000000e-01	2.000000e-02	0.0	2.100000e-01	2.000000e-02	0.0	2.200000e-01	2.000000e-02	0.0	2.300000e-01	2.000000e-02	0.0	2.400000e-01	2.000000e-02	0.0	2.500000e-01	2.000000e-02	0.0	2.600000e-01	2.000000e-02	0.0	2.700000e-01	2.000000e-02	0.0	2.800000e-01	2.000000e-02	0.0	2.900000e-01	2.000000e-02	0.0	3.000000e-01	2.000000e-02	0.0	3.100000e-01	2.000000e-02	0.0	3.200000e-01	2.000000e-02	0.0	3.300000e-01	2.000000e-02	0.0	3.400000e-01	2.000000e-02	0.0	3.500000e-01	2.000000e-02	0.0	3.600000e-01	2.000000e-02	0.0	3.700000e-01	2.000000e-02	0.0	3.800000e-01	2.000000e-02	0.0	3.900000e-01	2.000000e-02	0.0	4.000000e-01	2.000000e-02	0.0	4.100000e-01	2.000000e-02	0.0	4.200000e-01	2.000000e-02	0.0	4.300000e-01	2.000000e-02	0.0	4.400000e-01	2.000000e-02	0.0	4.500000e-01	2.000000e-02	0.0	4.600000e-01	2.000000e-02	0.0	4.700000e-01	2.000000e-02	0.0	4.800000e-01	2.000000e-02	0.0	4.900000e-01	2.000000e-02	0.0	5.000000e-01	2.000000e-02	0.0	5.100000e-01	2.000000e-02	0.0	5.200000e-01	2.000000e-02	0.0	5.300000e-01	2.000000e-02	0.0	5.400000e-01	2.000000e-02	0.0	5.500000e-01	2.000000e-02	0.0	5.600000e-01	2.000000e-02	0.0	5.700000e-01	2.000000e-02	0.0	5.800000e-01	2.000000e-02	0.0	5.900000e-01	2.000000e-02	0.0	6.000000e-01	2.000000e-02	0.0	6.100000e-01	2.000000e-02	0.0	6.200000e-01	2.000000e-02	0.0	6.300000e-01	2.000000e-02	0.0	6.400000e-01	2.000000e-02	0.0	6.500000e-01	2.000000e-02	0.0	6.600000e-01	2.000000e-02	0.0	6.700000e-01	2.000000e-02	0.0	6.800000e-01	2.000000e-02	0.0	6.900000e-01	2.000000e-02	0.0	7.000000e-01	2.000000e-02	0.0	7.100000e-01	2.000000e-02	0.0	7.200000e-01	2.000000e-02	0.0	7.300000e-01	2.000000e-02	0.0	7.400000e-01	2.000000e-02	0.0	7.500000e-01	2.000000e-02	0.0	7.600000e-01	2.000000e-02	0.0	7.700000e-01	2.000000e-02	0.0	7.800000e-01	2.000000e-02	0.0	7.900000e-01	2.000000e-02	0.0	8.000000e-01	2.000000e-02	0.0	8.100000e-01	2.000000e-02	0.0	8.200000e-01	2.000000e-02	0.0	8.300000e-01	2.000000e-02	0.0	8.400000e-01	2.000000e-02	0.0	8.500000e-01	2.000000e-02	0.0	8.600000e-01	2.000000e-02	0.0	8.700000e-01	2.000000e-02	0.0	8.800000e-01	2.000000e-02	0.0	8.900000e-01	2.000000e-02	0.0	9.000000e-01	2.000000e-02	0.0	9.100000e-01	2.000000e-02	0.0	9.200000e-01	2.000000e-02	0.0	9.300000e-01	2.000000e-02	0.0	9.400000e-01	2.000000e-02	0.0	9.500000e-01	2.000000e-02	0.0	9.600000e-01	2.000000e-02	0.0	9.700000e-01	2.000000e-02	0.0	9.800000e-01	2.000000e-02	0.0	9.900000e-01	2.000000e-02	0.0	1.000000e+00	2.000000e-02	0.0	0.000000e+00	3.000000e-02	0.0	1.000000e-02	3.000000e-02	0.0	2.000000e-02	3.000000e-02	0.0	3.000000e-02	3.000000e-02	0.0	4.000000e-02	3.000000e-02	0.0	5.000000e-02	3.000000e-02	0.0	6.000000e-02	3.000000e-02	0.0	7.000000e-02	3.000000e-02	0.0	8.000000e-02	3.000000e-02	0.0	9.000000e-02	3.000000e-02	0.0	1.000000e-01	3.000000e-02	0.0	1.100000e-01	3.000000e-02	0.0	1.200000e-01	3.000000e-02	0.0	1.300000e-01	3.000000e-02	0.0	1.400000e-01	3.000000e-02	0.0	1.500000e-01	3.000000e-02	0.0	1.600000e-01	3.000000e-02	0.0	1.700000e-01	3.000000e-02	0.0	1.800000e-01	3.000000e-02	0.0	1.900000e-01	3.000000e-02	0.0	2.000000e-01	3.000000e-02	0.0	2.100000e-01	3.000000e-02	0.0	2.200000e-01	3.000000e-02	0.0	2.300000e-01	3.000000e-02	0.0	2.400000e-01	3.000000e-02	0.0	2.500000e-01	3.000000e-02	0.0	2.600000e-01	3.000000
[...]
POINT_DATA 10201

SCALARS Height double 1
LOOKUP_TABLE default
9.995880e-01	9.995958e-01	9.995980e-01	9.995975e-01	9.995969e-01	9.995962e-01	9.995948e-01	9.995917e-01	9.995881e-01	9.995854e-01	9.995845e-01	9.995886e-01	9.996076e-01	9.996644e-01	9.998186e-01	1.000227e+00	1.001244e+00	1.003377e+00	1.006747e+00	1.010579e+00	1.013529e+00	1.015029e+00	1.015433e+00	1.015380e+00	1.014870e+00	1.013643e+00	1.011450e+00	1.008457e+00	1.005071e+00	1.001705e+00	9.986647e-01	9.961203e-01	9.941746e-01	9.928762e-01	9.921712e-01	9.919036e-01	9.918706e-01	9.919321e-01	9.921630e-01	9.926605e-01	9.934384e-01	9.943674e-01	9.952691e-01	9.960285e-01	9.966171e-01	9.970546e-01	9.973739e-01	9.976023e-01	9.977586e-01	9.978573e-01	9.979137e-01	9.979460e-01	9.979740e-01	9.980268e-01	9.981637e-01	9.985184e-01	9.994395e-01	1.001466e+00	1.004832e+00	1.008869e+00	1.012183e+00	1.014002e+00	1.014578e+00	1.014589e+00	1.014204e+00	1.013130e+00	1.011119e+00	1.008268e+00	1.004982e+00	1.001632e+00	9.985443e-01	9.959096e-01	9.938450e-01	9.924169e-01	9.915946e-01	9.912457e-01	9.911727e-01	9.912044e-01	9.913904e-01	9.918246e-01	9.925380e-01	9.934547e-01	9.943767e-01	9.951626e-01	9.957672e-01	9.962043e-01	9.965137e-01	9.967353e-01	9.968996e-01	9.970271e-01	9.971300e-01	9.972151e-01	9.972866e-01	9.973469e-01	9.973968e-01	9.974376e-01	9.974702e-01	9.974957e-01	9.975147e-01	9.975265e-01	9.975305e-01	9.995946e-01	9.996021e-01	9.995982e-01	9.995977e-01	9.995973e-01	9.995970e-01	9.995958e-01	9.995935e-01	9.995904e-01	9.995861e-01	9.995817e-01	9.995803e-01	9.995859e-01	9.996147e-01	9.997158e-01	1.000050e+00	1.001035e+00	1.003280e+00	1.006867e+00	1.010742e+00	1.013618e+00	1.015044e+00	1.015441e+00	1.015435e+00	1.015053e+00	1.013782e+00	1.011490e+00	1.008414e+00	1.004988e+00	1.001613e+00	9.985646e-01	9.960123e-01	9.940784e-01	9.928112e-01	9.921427e-01	9.918975e-01	9.918574e-01	9.918918e-01	9.921102e-01	9.926300e-01	9.934305e-01	9.943696e-01	9.952717e-01	9.960282e-01	9.966147e-01	9.970521e-01	9.973723e-01	9.976014e-01	9.977574e-01	9.978549e-01	9.979097e-01	9.979392e-01	9.979595e-01	9.979852e-01	9.980572e-01	9.983312e-01	9.992107e-01	1.001329e+00	1.004918e+00	1.009046e+00	1.012297e+00	1.014033e+00	1.014587e+00	1.014628e+00	1.014360e+00	1.013269e+00	1.011167e+00	1.008249e+00	1.004903e+00	1.001538e+00	9.984426e-01	9.957981e-01	9.937405e-01	9.923386e-01	9.915547e-01	9.912326e-01	9.911584e-01	9.911682e-01	9.913288e-01	9.917778e-01	9.925292e-01	9.934564e-01	9.943787e-01	9.951625e-01	9.957639e-01	9.961994e-01	9.965086e-01	9.967305e-01	9.968953e-01	9.970233e-01	9.971263e-01	9.972113e-01	9.972824e-01	9.973417e-01	9.973907e-01	9.974305e-01	9.974624e-01	9.974872e-01	9.975056e-01	9.975169e-01	9.975201e-01	9.996002e-01	9.996067e-01	9.996038e-01	9.996034e-01	9.996026e-01	9.996019e-01	9.996001e-01	9.995969e-01	9.995916e-01	9.995871e-01	9.995839e-01	9.995838e-01	9.995919e-01	9.996216e-01	9.997198e-01	1.000055e+00	1.001074e+00	1.003400e+00	1.007023e+00	1.010806e+00	1.013558e+00	1.014941e+00	1.015351e+00	1.015370e+00	1.015058e+00	1.013794e+00	1.011432e+00	1.008360e+00	1.005002e+00	1.001685e+00	9.986559e-01	9.961125e-01	9.941840e-01	9.929070e-01	9.922139e-01	9.919393e-01	9.918872e-01	9.919093e-01	9.921098e-01	9.926404e-01	9.934546e-01	9.943879e-01	9.952772e-01	9.960261e-01	9.966109e-01	9.970494e-01	9.973714e-01	9.976017e-01	9.977579e-01	9.978550e-01	9.979090e-01	9.979374e-01	9.979563e-01	9.979818e-01	9.980574e-01	9.983401e-01	9.992504e-01	1.001445e+00	1.005085e+00	1.009135e+00	1.012254e+00	1.013927e+00	1.014491e+00	1.014550e+00	1.014348e+00	1.013298e+00	1.011131e+00	1.008193e+00	1.004903e+00	1.001600e+00	9.985299e-01	9.958979e-01	9.938496e-01	9.924419e-01	9.916327e-01	9.912817e-01	9.911901e-01	9.911925e-01	9.913286e-01	9.917849e-01	9.925530e-01	9.934756e-01	9.943834e-01	9.951577e-01	9.957559e-01	9.961920e-01	9.965027e-01	9.967265e-01	9.968928e-01	9.970219e-01	9.971257e-01	9.972112e-01	9.972829e-01	9.973430e-01	9.973929e-01	9.974337e-01	9.974663e-01	9.974918e-01	9.975108e-01	9.975227e-01	9.975257e-01	9.995984e-01	9.996036e-01	9.996022e-01	9.996019e-01	9.996015e-01	9.996012e-01	9.995997e-01	9.995961e-01	9.995915e-01	9.995868e-01	9.995830e-01	9.995820e-01	9.995876e-01	9.996112e-01	9.996970e-01	1.000012e+00	1.001032e+00	1.003411e+00	1.007081e+00	1.010842e+00	1.013522e+00	1.014871e+00	1.015282e+00	1.015310e+00	1.015054e+00	1.013861e+00	1.011464e+00	1.008351e+00	1.005005e+00	1.001719e+00	9.987122e-01	9.961738e-01	9.942401e-01	9.929532e-01	9.922489e-01	9.919640e-01	9.919050e-01	9.919209e-01	9.920922e-01	9.926128e-01	9.934419e-01	9.943780e-01	9.952607e-01	9.960058e-01	9.965913e-01	9.970330e-01	9.973586e-01	9.975919e-01	9.977497e-01	9.978472e-01	9.979012e-01	9.979291e-01	9.979469e-01	9.979698e-01	9.980369e-01	9.983033e-01	9.992101e-01	1.001450e+00	1.005145e+00	1.009183e+00	1.012227e+00	1.013850e+00	1.014413e+00	1.014481e+00	1.014322e+00	1.013354e+00	1.011171e+00	1.008184e+00	1.004901e+00	1.001626e+00	9.985781e-01	9.959542e-01	9.939017e-01	9.924870e-01	9.916698e-01	9.913071e-01	9.912099e-01	9.912082e-01	9.913175e-01	9.917530e-01	9.925358e-01	9.934667e-01	9.943676e-01	9.951359e-01	9.957345e-01	9.961736e-01	9.964884e-01	9.967160e-01	9.968853e-01	9.970162e-01	9.971210e-01	9.972071e-01	9.972788e-01	9.973389e-01	9.973890e-01	9.974301e-01	9.974632e-01	9.974888e-01	9.975078e-01	9.975193e-01	9.975229e-01	9.995973e-01	9.996032e-01	9.996016e-01	9.996018e-01	9.996009e-01	9.996006e-01	9.995995e-01	9.995962e-01	9.995916e-01	9.995864e-01	9.995818e-01	9.995797e-01	9.995836e-01	9.996039e-01	9.996809e-01	9.999784e-01	1.000987e+00	1.003394e+00	1.007101e+00	1.010852e+00	1.013486e+00	1.014792e+00	1.015197e+00	1.015229e+00	1.015009e+00	1.013901e+00	1.011529e+00	1.008373e+00	1.005025e+00	1.001775e+00	9.987952e-01	9.962675e-01	9.943276e-01	9.930262e-01	9.923037e-01	9.920042e-01	9.919334e-01	9.919432e-01	9.920835e-01	9.925736e-01	9.934080e-01	9.943552e-01	9.952365e-01	9.959792e-01	9.965667e-01	9.970134e-01	9.973443e-01	9.975813e-01	9.977414e-01	9.978397e-01	9.978941e-01	9.979219e-01	9.979390e-01	9.979604e-01	9.980234e-01	9.982774e-01	9.991741e-01	1.001434e+00	1.005166e+00	1.009211e+00	1.012202e+00	1.013774e+00	1.014324e+00	1.014395e+00	1.014262e+00	1.013381e+00	1.011237e+00	1.008212e+00	1.004920e+00	1.001674e+00	9.986560e-01	9.960453e-01	9.939887e-01	9.925613e-01	9.917277e-01	9.913509e-01	9.912404e-01	9.912329e-01	9.913189e-01	9.917166e-01	9.924967e-01	9.934420e-01	9.943427e-01	9.951070e-01	9.957067e-01	9.961508e-01	9.964715e-01	9.967037e-01	9.968764e-01	9.970094e-01	9.971154e-01	9.972021e-01	9.972742e-01	9.973346e-01	9.973850e-01	9.974267e-01	9.974603e-01	9.974861e-01	9.975045e-01	9.975151e-01	9.975189e-01	9.995960e-01	9.996024e-01	9.996001e-01	9.996007e-01	9.996001e-01	9.995999e-01	9.995990e-01	9.995964e-01	9.995922e-01	9.995870e-01	9.995817e-01	9.995784e-01	9.995805e-01	9.995978e-01	9.996685e-01	9.999537e-01	1.000944e+00	1.003352e+00	1.007090e+00	1.010841e+00	1.013441e+00	1.014717e+00	1.015113e+00	1.015145e+00	1.014948e+00	1.013922e+00	1.011613e+00	1.008438e+00	1.005073e+00	1.001843e+00	9.988950e-01	9.963789e-01	9.944324e-01	9.931145e-01	9.923716e-01	9.920532e-01	9.919721e-01	9.919749e-01	9.920868e-01	9.925325e-01	9.933529e-01	9.943121e-01	9.952010e-01	9.959458e-01	9.965377e-01	9.969915e-01	9.973284e-01	9.975691e-01	9.977304e-01	9.978297e-01	9.978845e-01	9.979123e-01	9.979290e-01	9.979498e-01	9.980106e-01	9.982571e-01	9.991417e-01	1.001402e+00	1.005152e+00	1.009183e+00	1.012148e+00	1.013697e+00	1.014236e+00	1.014306e+00	1.014189e+00	1.013383e+00	1.011313e+00	1.008282e+00	1.004966e+00	1.001735e+00	9.987498e-01	9.961534e-01	9.940926e-01	9.926500e-01	9.917970e-01	9.914014e-01	9.912788e-01	9.912639e-01	9.913289e-01	9.916833e-01	9.924390e-01	9.933942e-01	9.943041e-01	9.950703e-01	9.956734e-01	9.961249e-01	9.964527e-01	9.966902e-01	9.968661e-01	9.970010e-01	9.971079e-01	9.971949e-01	9.972673e-01	9.973281e-01	9.973792e-01	9.974216e-01	9.974558e-01	9.974814e-01	9.974990e-01	9.975085e-01	9.975125e-01	9.995938e-01	9.996010e-01	9.995982e-01	9.995991e-01	9.995989e-01	9.995986e-01	9.995981e-01	9.995962e-01	9.995928e-01	9.995879e-01	9.995827e-01	9.995786e-01	9.995789e-01	9.995933e-01	9.996595e-01	9.999372e-01	1.000908e+00	1.003296e+00	1.007031e+00	1.010788e+00	1.013374e+00	1.014635e+00	1.015027e+00	1.015057e+00	1.014878e+00	1.013929e+00	1.011706e+00	1.008546e+00	1.005157e+00	1.001931e+00	9.990101e-01	9.965071e-01	9.945535e-01	9.932163e-01	9.924495e-01	9.921105e-01	9.920187e-01	9.920173e-01	9.921072e-01	9.925025e-01	9.932895e-01	9.942531e-01	9.951565e-01	9.959092e-01	9.965079e-01	9.969694e-01	9.973130e-01	9.975564e-01	9.977192e-01	9.978190e-01	9.978737e-01	9.979014e-01	9.979182e-01	9.979390e-01	9.979995e-01	9.982430e-01	9.991164e-01	1.001358e+00	1.005097e+00	1.009123e+00	1.012074e+00	1.013610e+00	1.014143e+00	1.014214e+00	1.014108e+00	1.013370e+00	1.011396e+00	1.008390e+00	1.005050e+00	1.001822e+00	9.988609e-01	9.962785e-01	9.942129e-01	9.927520e-01	9.918762e-01	9.914602e-01	9.913255e-01	9.913047e-01	9.913541e-01	9.916634e-01	9.923783e-01	9.933302e-01	9.942546e-01	9.950292e-01	9.956385e-01	9.960977e-01	9.964332e-01	9.966768e-01	9.968557e-01	9.969916e-01	9.970987e-01	9.971858e-01	9.972583e-01	9.973197e-01	9.973714e-01	9.974144e-01	9.974487e-01	9.974742e-01	9.974918e-01	9.975014e-01	9.975066e-01	9.995911e-01	9.995992e-01	9.995957e-01	9.995966e-01	9.995962e-01	9.995962e-01	9.995961e-01	9.995949e-01	9.995930e-01	9.995892e-01	9.995841e-01	9.995796e-01	9.995785e-01	9.995901e-01	9.996533e-01	9.999257e-01	1.000880e+00	1.003234e+00	1.006935e+00	1.010684e+00	1.013276e+00	1.014538e+00	1.014932e+00	1.014964e+00	1.014805e+00	1.013933e+00	1.011810e+00	1.008695e+00	1.005290e+00	1.002054e+00	9.991432e-01	9.966506e-01	9.946890e-01	9.933284e-01	9.925345e-01	9.921729e-01	9.920684e-01	9.920659e-01	9.921375e-01	9.924822e-01	9.932256e-01	9.941866e-01	9.951068e-01	9.958717e-01	9.964777e-01	9.969466e-01	9.972953e-01	9.975418e-01	9.977065e-01	9.978071e-01	9.978622e-01	9.978905e-01	9.979079e-01	9.979295e-01	9.979910e-01	9.982347e-01	9.991007e-01	1.001317e+00	1.005020e+00	1.009027e+00	1.011972e+00	1.013508e+00	1.014044e+00	1.014116e+00	1.014020e+00	1.013347e+00	1.011483e+00	1.008538e+00	1.005191e+00	1.001946e+00	9.989909e-01	9.964199e-01	9.943486e-01	9.928661e-01	9.919636e-01	9.915254e-01	9.913774e-01	9.913546e-01	9.913914e-01	9.916578e-01	9.923238e-01	9.932620e-01	9.942005e-01	9.949872e-01	9.956026e-01	9.960686e-01	9.964123e-01	9.966615e-01	9.968438e-01	9.969808e-01	9.970882e-01	9.971757e-01	9.972489e-01	9.973110e-01	9.973631e-01	9.974059e-01	9.974401e-01	9.974661e-01	9.974853e-01	9.974963e-01	9.975036e-01	9.995890e-01	9.995968e-01	9.995928e-01	9.995939e-01	9.995934e-01	9.995932e-01	9.995931e-01	9.995925e-01	9.995908e-01	9.995882e-01	9.995849e-01	9.995801e-01	9.995772e-01	9.995867e-01	9.996474e-01	9.999159e-01	1.000859e+00	1.003171e+00	1.006820e+00	1.010545e+00	1.013140e+00	1.014419e+00	1.014822e+00	1.014857e+00	1.014720e+00	1.013927e+00	1.011917e+00	1.008873e+00	1.005474e+00	1.002215e+00	9.992996e-01	9.968113e-01	9.948392e-01	9.934510e-01	9.926255e-01	9.922394e-01	9.921213e-01	9.921158e-01	9.921718e-01	9.924653e-01	9.931568e-01	9.941076e-01	9.950452e-01	9.958282e-01	9.964437e-01	9.969174e-01	9.972707e-01	9.975221e-01	9.976899e-01	9.977928e-01	9.978501e-01	9.978805e-01	9.978997e-01	9.979229e-01	9.979870e-01	9.982342e-01	9.990972e-01	1.001285e+00	1.004935e+00	1.008899e+00	1.011837e+00	1.013384e+00	1.013931e+00	1.014008e+00	1.013923e+00	1.013314e+00	1.011565e+00	1.008710e+00	1.005378e+00	1.002111e+00	9.991476e-01	9.965804e-01	9.945013e-01	9.929945e-01	9.920619e-01	9.915988e-01	9.914366e-01	9.914100e-01	9.914362e-01	9.916606e-01	9.922721e-01	9.931877e-01	9.941367e-01	9.949394e-01	9.955638e-01	9.960357e-01	9.963858e-01	9.966415e-01	9.968281e-01	9.969680e-01	9.970778e-01	9.971672e-01	9.972420e-01	9.973051e-01	9.973573e-01	9.973996e-01	9.974334e-01	9.974602e-01	9.974810e-01	9.974930e-01	9.975023e-01	9.995863e-01	9.995952e-01	9.995905e-01	9.995917e-01	9.995908e-01	9.995902e-01	9.995896e-01	9.995890e-01	9.995874e-01	9.995845e-01	9.995808e-01	9.995768e-01	9.995737e-01	9.995813e-01	9.996411e-01	9.999080e-01	1.000839e+00	1.003107e+00	1.006694e+00	1.010381e+00	1.012977e+00	1.014275e+00	1.014696e+00	1.014736e+00	1.014615e+00	1.013895e+00	1.012002e+00	1.009052e+00	1.005683e+00	1.002412e+00	9.994817e-01	9.969886e-01	9.950040e-01	9.935865e-01	9.927249e-01	9.923093e-01	9.921751e-01	9.921650e-01	9.922063e-01	9.924481e-01	9.930792e-01	9.940114e-01	9.949673e-01	9.957727e-01	9.964001e-01	9.968780e-01	9.972355e-01	9.974932e-01	9.976672e-01	9.977749e-01	9.978367e-01	9.978706e-01	9.978923e-01	9.979182e-01	9.979867e-01	9.982406e-01	9.991026e-01	1.001258e+00	1.004842e+00	1.008753e+00	1.011676e+00	1.013233e+00	1.013799e+00	1.013885e+00	1.013816e+00	1.013268e+00	1.011635e+00	1.008888e+00	1.005598e+00	1.002319e+00	9.993368e-01	9.967626e-01	9.946736e-01	9.931418e-01	9.921757e-01	9.916837e-01	9.915031e-01	9.914699e-01	9.914863e-01	9.916677e-01	9.922176e-01	9.931029e-01	9.940605e-01	9.948824e-01	9.955193e-01	9.959966e-01	9.963512e-01	9.966127e-01	9.968059e-01	9.969523e-01	9.970673e-01	9.971604e-01	9.972376e-01	9.973019e-01	9.973544e-01	9.973968e-01	9.974307e-01	9.974574e-01	9.974781e-01	9.974896e-01	9.975001e-01	9.995856e-01	9.995947e-01	9.995883e-01	9.995896e-01	9.995884e-01	9.995872e-01	9.995858e-01	9.995844e-01	9.995829e-01	9.995796e-01	9.995755e-01	9.995707e-01	9.995668e-01	9.995759e-01	9.996362e-01	9.999045e-01	1.000822e+00	1.003041e+00	1.006557e+00	1.010202e+00	1.012796e+00	1.014111e+00	1.014550e+00	1.014595e+00	1.014488e+00	1.013836e+00	1.012060e+00	1.009223e+00	1.005903e+00	1.002634e+00	9.996902e-01	9.971858e-01	9.951865e-01	9.937400e-01	9.928389e-01	9.923872e-01	9.922297e-01	9.922115e-01	9.922411e-01	9.924321e-01	9.929921e-01	9.938913e-01	9.948597e-01	9.956915e-01	9.963377e-01	9.968247e-01	9.971882e-01	9.974529e-01	9.976354e-01	9.977518e-01	9.978201e-01	9.978588e-01	9.978834e-01	9.979124e-01	9.979864e-01	9.982489e-01	9.991104e-01	1.001228e+00	1.004738e+00	1.008589e+00	1.011495e+00	1.013063e+00	1.013647e+00	1.013746e+00	1.013692e+00	1.013208e+00	1.011691e+00	1.009059e+00	1.005829e+00	1.002555e+00	9.995552e-01	9.969676e-01	9.948666e-01	9.933108e-01	9.923093e-01	9.917821e-01	9.915770e-01	9.915327e-01	9.915393e-01	9.916777e-01	9.921587e-01	9.930012e-01	9.939606e-01	9.948044e-01	9.954607e-01	9.959478e-01	9.963073e-01	9.965750e-01	9.967769e-01	9.969323e-01	9.970546e-01	9.971526e-01	9.972326e-01	9.972983e-01	9.973518e-01	9.973950e-01	9.974291e-01	9.974550e-01	9.974737e-01	9.974828e-01	9.974932e-01	9.995878e-01	9.995954e-01	9.995875e-01	9.995887e-01	9.995870e-01	9.995851e-01	9.995827e-01	9.995802e-01	9.995771e-01	9.995735e-01	9.995688e-01	9.995651e-01	9.995618e-01	9.995712e-01	9.996352e-01	9.999057e-01	1.000809e+00	1.002973e+00	1.006407e+00	1.010004e+00	1.012599e+00	1.013933e+00	1.014389e+00	1.014442e+00	1.014353e+00	1.013771e+00	1.012128e+00	1.009398e+00	1.006137e+00	1.002881e+00	9.999285e-01	9.974099e-01	9.953929e-01	9.939169e-01	9.929741e-01	9.924795e-01	9.922915e-01	9.922594e-01	9.922785e-01	9.924211e-01	9.929007e-01	9.937494e-01	9.947183e-01	9.955771e-01	9.962498e-01	9.967539e-01	9.971277e-01	9.974001e-01	9.975900e-01	9.977141e-01	9.977893e-01	9.978339e-01	9.978644e-01	9.978994e-01	9.979813e-01	9.982532e-01	9.991136e-01	1.001187e+00	1.004612e+00	1.008399e+00	1.011294e+00	1.012880e+00	1.013483e+00	1.013596e+00	1.013550e+00	1.013129e+00	1.011733e+00	1.009221e+00	1.006059e+00	1.002802e+00	9.997939e-01	9.971926e-01	9.950776e-01	9.934986e-01	9.924607e-01	9.918931e-01	9.916569e-01	9.915958e-01	9.915942e-01	9.916916e-01	9.920964e-01	9.928812e-01	9.938314e-01	9.946976e-01	9.953809e-01	9.958860e-01	9.962563e-01	9.965325e-01	9.967432e-01	9.969072e-01	9.970367e-01	9.971396e-01	9.972226e-01	9.972903e-01	9.973455e-01	9.973899e-01	9.974242e-01	9.974487e-01	9.974646e-01	9.974705e-01	9.974801e-01	9.996007e-01	9.996031e-01	9.995923e-01	9.995922e-01	9.995893e-01	9.995862e-01	9.995825e-01	9.995784e-01	9.995738e-01	9.995684e-01	9.995635e-01	9.995601e-01	9.995587e-01	9.995690e-01	9.996369e-01	9.999105e-01	1.000801e+00	1.002904e+00	1.006246e+00	1.009789e+00	1.012390e+00	1.013756e+00	1.014246e+00	1.014317e+00	1.014250e+00	1.013749e+00	1.012227e+00	1.009607e+00	1.006407e+00	1.003169e+00	1.000209e+00	9.976732e-01	9.956330e-01	9.941239e-01	9.931361e-01	9.925943e-01	9.923692e-01	9.923161e-01	9.923246e-01	9.924214e-01	9.928157e-01	9.935968e-01	9.945534e-01	9.954354e-01	9.961393e-01	9.966685e-01	9.970579e-01	9.973386e-01	9.975330e-01	9.976598e-01	9.977378e-01	9.977861e-01	9.978224e-01	9.978652e-01	9.979585e-01	9.982433e-01	9.991030e-01	1.001129e+00	1.004459e+00	1.008176e+00	1.011066e+00	1.012683e+00	1.013312e+00	1.013437e+00	1.013399e+00	1.013033e+00	1.011762e+00	1.009378e+00	1.006290e+00	1.003059e+00	1.000048e+00	9.974345e-01	9.953034e-01	9.936988e-01	9.926228e-01	9.920119e-01	9.917395e-01	9.916580e-01	9.916478e-01	9.917088e-01	9.920349e-01	9.927480e-01	9.936761e-01	9.945622e-01	9.952775e-01	9.958106e-01	9.961999e-01	9.964882e-01	9.967070e-01	9.968771e-01	9.970112e-01	9.971174e-01	9.972029e-01	9.972728e-01	9.973300e-01	9.973756e-01	9.974100e-01	9.974335e-01	9.974482e-01	9.974528e-01	9.974625e-01	9.996486e-01	9.996363e-01	9.996178e-01	9.996130e-01	9.996068e-01	9.996013e-01	9.995957e-01	9.995899e-01	9.995836e-01	9.995771e-01	9.995720e-01	9.995700e-01	9.995698e-01	9.995806e-01	9.996523e-01	9.999311e-01	1.000806e+00	1.002851e+00	1.006101e+00	1.009590e+00	1.012209e+00	1.013632e+00	1.014166e+00	1.014257e+00	1.014205e+00	1.013769e+00	1.012363e+00	1.009864e+00	1.006734e+00	1.003517e+00	1.000551e+00	9.979940e-01	9.959239e-01	9.943748e-01	9.933368e-01	9.927439e-01	9.924757e-01	9.923953e-01	9.923900e-01	9.924448e-01	9.927517e-01	9.934550e-01	9.943907e-01	9.952935e-01	9.960307e-01	9.965889e-01	9.969966e-01	9.972857e-01	9.974819e-01	9.976072e-01	9.976833e-01	9.977308e-01	9.977675e-01	9.978133e-01	9.979131e-01	9.982102e-01	9.990733e-01	1.001053e+00	1.004284e+00	1.007919e+00	1.010802e+00	1.012459e+00	1.013125e+00	1.013269e+00	1.013240e+00	1.012929e+00	1.011785e+00	1.009537e+00	1.006533e+00	1.003333e+00	1.000323e+00	9.976969e-01	9.955452e-01	9.939095e-01	9.927907e-01	9.921332e-01	9.918223e-01	9.917176e-01	9.916977e-01	9.917290e-01	9.919795e-01	9.926117e-01	9.935086e-01	9.944093e-01	9.951570e-01	9.957231e-01	9.961372e-01	9.964408e-01	9.966683e-01	9.968428e-01	9.969787e-01	9.970861e-01	9.971729e-01	9.972439e-01	9.973018e-01	9.973480e-01	9.973832e-01	9.974086e-01	9.974261e-01	9.974330e-01	9.974449e-01	9.997982e-01	9.997514e-01	9.997160e-01	9.996999e-01	9.996853e-01	9.996742e-01	9.996654e-01	9.996578e-01	9.996505e-01	9.996432e-01	9.996391e-01	9.996396e-01	9.996438e-01	9.996594e-01	9.997359e-01	1.000018e+00	1.000875e+00	1.002845e+00	1.006003e+00	1.009449e+00	1.012093e+00	1.013561e+00	1.014126e+00	1.014231e+00	1.014188e+00	1.013817e+00	1.012550e+00	1.010191e+00	1.007147e+00	1.003962e+00	1.000992e+00	9.984124e-01	9.963069e-01	9.947102e-01	9.936150e-01	9.929629e-01	9.926448e-01	9.925292e-01	9.925037e-01	9.925213e-01	9.927406e-01	9.933491e-01	9.942514e-01	9.951726e-01	9.959390e-01	9.965214e-01	9.969454e-01	9.972431e-01	9.974421e-01	9.975670e-01	9.976417e-01	9.976878e-01	9.977236e-01	9.977695e-01	9.978735e-01	9.981795e-01	9.990403e-01	1.000973e+00	1.004098e+00	1.007640e+00	1.010504e+00	1.012200e+00	1.012913e+00	1.013084e+00	1.013067e+00	1.012816e+00	1.011805e+00	1.009704e+00	1.006795e+00	1.003633e+00	1.000628e+00	9.979891e-01	9.958115e-01	9.941376e-01	9.929697e-01	9.922599e-01	9.919068e-01	9.917766e-01	9.917460e-01	9.917558e-01	9.919388e-01	9.924844e-01	9.933411e-01	9.942512e-01	9.950287e-01	9.956267e-01	9.960664e-01	9.963878e-01	9.966256e-01	9.968053e-01	9.969435e-01	9.970519e-01	9.971392e-01	9.972101e-01	9.972678e-01	9.973145e-01	9.973521e-01	9.973818e-01	9.974042e-01	9.974146e-01	9.974292e-01	1.000223e+00	1.000120e+00	1.000063e+00	1.000027e+00	9.999973e-01	9.999757e-01	9.999612e-01	9.999507e-01	9.999408e-01	9.999324e-01	9.999287e-01	9.999313e-01	9.999375e-01	9.999580e-01	1.000039e+00	1.000320e+00	1.001153e+00	1.003054e+00	1.006089