# vtk DataFile Version 3.0
vtk output
ASCII
DATASET STRUCTURED_GRID
DIMENSIONS 101 101 1
POINTS 10201 double
0.000000e+00	0.000000e+00	0.0	1.000000e-02	0.000000e+00	0.0	2.000000e-02	0.000000e+00	0.0	3.000000e-02	0.000000e+00	0.0	4.000000e-02	0.000000e+00	0.0	5.000000e-02	0.000000e+00	0.0	6.000000e-02	0.000000e+00	0.0	7.000000e-02	0.000000e+00	0.0	8.000000e-02	0.000000e+00	0.0	9.000000e-02	0.000000e+00	0.0	1.000000e-01	0.000000e+00	0.0	1.100000e-01	0.000000e+00	0.0	1.200000e-01	0.000000e+00	0.0	1.300000e-01	0.000000e+00	0.0	1.400000e-01	0.000000e+00	0.0	1.500000e-01	0.000000e+00	0.0	1.600000e-01	0.000000e+00	0.0	1.700000e-01	0.000000e+00	0.0	1.800000e-01	0.000000e+00	0.0	1.900000e-01	0.000000e+00	0.0	2.000000e-01	0.000000e+00	0.0	2.100000e-01	0.000000e+00	0.0	2.200000e-01	0.000000e+00	0.0	2.300000e-01	0.000000e+00	0.0	2.400000e-01	0.000000e+00	0.0	2.500000e-01	0.000000e+00	0.0	2.600000e-01	0.000000e+00	0.0	2.700000e-01	0.000000e+00	0.0	2.800000e-01	0.000000e+00	0.0	2.900000e-01	0.000000e+00	0.0	3.000000e-01	0.000000e+00	0.0	3.100000e-01	0.000000e+00	0.0	3.200000e-01	0.000000e+00	0.0	3.300000e-01	0.000000e+00	0.0	3.400000e-01	0.000000e+00	0.0	3.500000e-01	0.000000e+00	0.0	3.600000e-01	0.000000e+00	0.0	3.700000e-01	0.000000e+00	0.0	3.800000e-01	0.000000e+00	0.0	3.900000e-01	0.000000e+00	0.0	4.000000e-01	0.000000e+00	0.0	4.100000e-01	0.000000e+00	0.0	4.200000e-01	0.000000e+00	0.0	4.300000e-01	0.000000e+00	0.0	4.400000e-01	0.000000e+00	0.0	4.500000e-01	0.000000e+00	0.0	4.600000e-01	0.000000e+00	0.0	4.700000e-01	0.000000e+00	0.0	4.800000e-01	0.000000e+00	0.0	4.900000e-01	0.000000e+00	0.0	5.000000e-01	0.000000e+00	0.0	5.100000e-01	0.000000e+00	0.0	5.200000e-01	0.000000e+00	0.0	5.300000e-01	0.000000e+00	0.0	5.400000e-01	0.000000e+00	0.0	5.500000e-01	0.000000e+00	0.0	5.600000e-01	0.000000e+00	0.0	5.700000e-01	0.000000e+00	0.0	5.800000e-01	0.000000e+00	0.0	5.900000e-01	0.000000e+00	0.0	6.000000e-01	0.000000e+00	0.0	6.100000e-01	0.000000e+00	0.0	6.200000e-01	0.000000e+00	0.0	6.300000e-01	0.000000e+00	0.0	6.400000e-01	0.000000e+00	0.0	6.500000e-01	0.000000e+00	0.0	6.600000e-01	0.000000e+00	0.0	6.700000e-01	0.000000e+00	0.0	6.800000e-01	0.000000e+00	0.0	6.900000e-01	0.000000e+00	0.0	7.000000e-01	0.000000e+00	0.0	7.100000e-01	0.000000e+00	0.0	7.200000e-01	0.000000e+00	0.0	7.300000e-01	0.000000e+00	0.0	7.400000e-01	0.000000e+00	0.0	7.500000e-01	0.000000e+00	0.0	7.600000e-01	0.000000e+00	0.0	7.700000e-01	0.000000e+00	0.0	7.800000e-01	0.000000e+00	0.0	7.900000e-01	0.000000e+00	0.0	8.000000e-01	0.000000e+00	0.0	8.100000e-01	0.000000e+00	0.0	8.200000e-01	0.000000e+00	0.0	8.300000e-01	0.000000e+00	0.0	8.400000e-01	0.000000e+00	0.0	8.500000e-01	0.000000e+00	0.0	8.600000e-01	0.000000e+00	0.0	8.700000e-01	0.000000e+00	0.0	8.800000e-01	0.000000e+00	0.0	8.900000e-01	0.000000e+00	0.0	9.000000e-01	0.000000e+00	0.0	9.100000e-01	0.000000e+00	0.0	9.200000e-01	0.000000e+00	0.0	9.300000e-01	0.000000e+00	0.0	9.400000e-01	0.000000e+00	0.0	9.500000e-01	0.000000e+00	0.0	9.600000e-01	0.000000e+00	0.0	9.700000e-01	0.000000e+00	0.0	9.800000e-01	0.000000e+00	0.0	9.900000e-01	0.000000e+00	0.0	1.000000e+00	0.000000e+00	0.0	0.000000e+00	1.000000e-02	0.0	1.000000e-02	1.000000e-02	0.0	2.000000e-02	1.000000e-02	0.0	3.000000e-02	1.000000e-02	0.0	4.000000e-02	1.000000e-02	0.0	5.000000e-02	1.000000e-02	0.0	6.000000e-02	1.000000e-02	0.0	7.000000e-02	1.000000e-02	0.0	8.000000e-02	1.000000e-02	0.0	9.000000e-02	1.000000e-02	0.0	1.000000e-01	1.000000e-02	0.0	1.100000e-01	1.000000e-02	0.0	1.200000e-01	1.000000e-02	0.0	1.300000e-01	1.000000e-02	0.0	1.400000e-01	1.000000e-02	0.0	1.500000e-01	1.000000e-02	0.0	1.600000e-01	1.000000e-02	0.0	1.700000e-01	1.000000e-02	0.0	1.800000e-01	1.000000e-02	0.0	1.900000e-01	1.000000e-02	0.0	2.000000e-01	1.000000e-02	0.0	2.100000e-01	1.000000e-02	0.0	2.200000e-01	1.000000e-02	0.0	2.300000e-01	1.000000e-02	0.0	2.400000e-01	1.000000e-02	0.0	2.500000e-01	1.000000e-02	0.0	2.600000e-01	1.000000e-02	0.0	2.700000e-01	1.000000e-02	0.0	2.800000e-01	1.000000e-02	0.0	2.900000e-01	1.000000e-02	0.0	3.000000e-01	1.000000e-02	0.0	3.100000e-01	1.000000e-02	0.0	3.200000e-01	1.000000e-02	0.0	3.300000e-01	1.000000e-02	0.0	3.400000e-01	1.000000e-02	0.0	3.500000e-01	1.000000e-02	0.0	3.600000e-01	1.000000e-02	0.0	3.700000e-01	1.000000e-02	0.0	3.800000e-01	1.000000e-02	0.0	3.900000e-01	1.000000e-02	0.0	4.000000e-01	1.000000e-02	0.0	4.100000e-01	1.000000e-02	0.0	4.200000e-01	1.000000e-02	0.0	4.300000e-01	1.000000e-02	0.0	4.400000e-01	1.000000e-02	0.0	4.500000e-01	1.000000e-02	0.0	4.600000e-01	1.000000e-02	0.0	4.700000e-01	1.000000e-02	0.0	4.800000e-01	1.000000e-02	0.0	4.900000e-01	1.000000e-02	0.0	5.000000e-01	1.000000e-02	0.0	5.100000e-01	1.000000e-02	0.0	5.200000e-01	1.000000e-02	0.0	5.300000e-01	1.000000e-02	0.0	5.400000e-01	1.000000e-02	0.0	5.500000e-01	1.000000e-02	0.0	5.600000e-01	1.000000e-02	0.0	5.700000e-01	1.000000e-02	0.0	5.800000e-01	1.000000e-02	0.0	5.900000e-01	1.000000e-02	0.0	6.000000e-01	1.000000e-02	0.0	6.100000e-01	1.000000e-02	0.0	6.200000e-01	1.000000e-02	0.0	6.300000e-01	1.000000e-02	0.0	6.400000e-01	1.000000e-02	0.0	6.500000e-01	1.000000e-02	0.0	6.600000e-01	1.000000e-02	0.0	6.700000e-01	1.000000e-02	0.0	6.800000e-01	1.000000e-02	0.0	6.900000e-01	1.000000e-02	0.0	7.000000e-01	1.000000e-02	0.0	7.100000e-01	1.000000e-02	0.0	7.200000e-01	1.000000e-02	0.0	7.300000e-01	1.000000e-02	0.0	7.400000e-01	1.000000e-02	0.0	7.500000e-01	1.000000e-02	0.0	7.600000e-01	1.000000e-02	0.0	7.700000e-01	1.000000e-02	0.0	7.800000e-01	1.000000e-02	0.0	7.900000e-01	1.000000e-02	0.0	8.000000e-01	1.000000e-02	0.0	8.100000e-01	1.000000e-02	0.0	8.200000e-01	1.000000e-02	0.0	8.300000e-01	1.000000e-02	0.0	8.400000e-01	1.000000e-02	0.0	8.500000e-01	1.000000e-02	0.0	8.600000e-01	1.000000e-02	0.0	8.700000e-01	1.000000e-02	0.0	8.800000e-01	1.000000e-02	0.0	8.900000e-01	1.000000e-02	0.0	9.000000e-01	1.000000e-02	0.0	9.100000e-01	1.000000e-02	0.0	9.200000e-01	1.000000e-02	0.0	9.300000e-01	1.000000e-02	0.0	9.400000e-01	1.000000e-02	0.0	9.500000e-01	1.000000e-02	0.0	9.600000e-01	1.000000e-02	0.0	9.700000e-01	1.000000e-02	0.0	9.800000e-01	1.000000e-02	0.0	9.900000e-01	1.000000e-02	0.0	1.000000e+00	1.000000e-02	0.0	0.000000e+00	2.000000e-02	0.0	1.000000e-02	2.000000e-02	0.0	2.000000e-02	2.000000e-02	0.0	3.000000e-02	2.000000e-02	0.0	4.000000e-02	2.000000e-02	0.0	5.000000e-02	2.000000e-02	0.0	6.000000e-02	2.000000e-02	0.0	7.000000e-02	2.000000e-02	0.0	8.000000e-02	2.000000e-02	0.0	9.000000e-02	2.000000e-02	0.0	1.000000e-01	2.000000e-02	0.0	1.100000e-01	2.000000e-02	0.0	1.200000e-01	2.000000e-02	0.0	1.300000e-01	2.000000e-02	0.0	1.400000e-01	2.000000e-02	0.0	1.500000e-01	2.000000e-02	0.0	1.600000e-01	2.000000e-02	0.0	1.700000e-01	2.000000e-02	0.0	1.800000e-01	2.000000e-02	0.0	1.900000e-01	2.000000e-02	0.0	2.000000e-01	2.000000e-02	0.0	2.100000e-01	2.000000e-02	0.0	2.200000e-01	2.000000e-02	0.0	2.300000e-01	2.000000e-02	0.0	2.400000e-01	2.000000e-02	0.0	2.500000e-01	2.000000e-02	0.0	2.600000e-01	2.000000e-02	0.0	2.700000e-01	2.000000e-02	0.0	2.800000e-01	2.000000e-02	0.0	2.900000e-01	2.000000e-02	0.0	3.000000e-01	2.000000e-02	0.0	3.100000e-01	2.000000e-02	0.0	3.200000e-01	2.000000e-02	0.0	3.300000e-01	2.000000e-02	0.0	3.400000e-01	2.000000e-02	0.0	3.500000e-01	2.000000e-02	0.0	3.600000e-01	2.000000e-02	0.0	3.700000e-01	2.000000e-02	0.0	3.800000e-01	2.000000e-02	0.0	3.900000e-01	2.000000e-02	0.0	4.000000e-01	2.000000e-02	0.0	4.100000e-01	2.000000e-02	0.0	4.200000e-01	2.000000e-02	0.0	4.300000e-01	2.000000e-02	0.0	4.400000e-01	2.000000e-02	0.0	4.500000e-01	2.000000e-02	0.0	4.600000e-01	2.000000e-02	0.0	4.700000e-01	2.000000e-02	0.0	4.800000e-01	2.000000e-02	0.0	4.900000e-01	2.000000e-02	0.0	5.000000e-01	2.000000e-02	0.0	5.100000e-01	2.000000e-02	0.0	5.200000e-01	2.000000e-02	0.0	5.300000e-01	2.000000e-02	0.0	5.400000e-01	2.000000e-02	0.0	5.500000e-01	2.000000e-02	0.0	5.600000e-01	2.000000e-02	0.0	5.700000e-01	2.000000e-02	0.0	5.800000e-01	2.000000e-02	0.0	5.900000e-01	2.000000e-02	0.0	6.000000e-01	2.000000e-02	0.0	6.100000e-01	2.000000e-02	0.0	6.200000e-01	2.000000e-02	0.0	6.300000e-01	2.000000e-02	0.0	6.400000e-01	2.000000e-02	0.0	6.500000e-01	2.000000e-02	0.0	6.600000e-01	2.000000e-02	0.0	6.700000e-01	2.000000e-02	0.0	6.800000e-01	2.000000e-02	0.0	6.900000e-01	2.000000e-02	0.0	7.000000e-01	2.000000e-02	0.0	7.100000e-01	2.000000e-02	0.0	7.200000e-01	2.000000e-02	0.0	7.300000e-01	2.000000e-02	0.0	7.400000e-01	2.000000e-02	0.0	7.500000e-01	2.000000e-02	0.0	7.600000e-01	2.000000e-02	0.0	7.700000e-01	2.000000e-02	0.0	7.800000e-01	2.000000e-02	0.0	7.900000e-01	2.000000e-02	0.0	8.000000e-01	2.000000e-02	0.0	8.100000e-01	2.000000e-02	0.0	8.200000e-01	2.000000e-02	0.0	8.300000e-01	2.000000e-02	0.0	8.400000e-01	2.000000e-02	0.0	8.500000e-01	2.000000e-02	0.0	8.600000e-01	2.000000e-02	0.0	8.700000e-01	2.000000e-02	0.0	8.800000e-01	2.000000e-02	0.0	8.900000e-01	2.000000e-02	0.0	9.000000e-01	2.000000e-02	0.0	9.100000e-01	2.000000e-02	0.0	9.200000e-01	2.000000e-02	0.0	9.300000e-01	2.000000e-02	0.0	9.400000e-01	2.000000e-02	0.0	9.500000e-01	2.000000e-02	0.0	9.600000e-01	2.000000e-02	0.0	9.700000e-01	2.000000e-02	0.0	9.800000e-01	2.000000e-02	0.0	9.900000e-01	2.000000e-02	0.0	1.000000e+00	2.000000e-02	0.0	0.000000e+00	3.000000e-02	0.0	1.000000e-02	3.000000e-02	0.0	2.000000e-02	3.000000e-02	0.0	3.000000e-02	3.000000e-02	0.0	4.000000e-02	3.000000e-02	0.0	5.000000e-02	3.000000e-02	0.0	6.000000e-02	3.000000e-02	0.0	7.000000e-02	3.000000e-02	0.0	8.000000e-02	3.000000e-02	0.0	9.000000e-02	3.000000e-02	0.0	1.000000e-01	3.000000e-02	0.0	1.100000e-01	3.000000e-02	0.0	1.200000e-01	3.000000e-02	0.0	1.300000e-01	3.000000e-02	0.0	1.400000e-01	3.000000e-02	0.0	1.500000e-01	3.000000e-02	0.0	1.600000e-01	3.000000e-02	0.0	1.700000e-01	3.000000e-02	0.0	1.800000e-01	3.000000e-02	0.0	1.900000e-01	3.000000e-02	0.0	2.000000e-01	3.000000e-02	0.0	2.100000e-01	3.000000e-02	0.0	2.200000e-01	3.000000e-02	0.0	2.300000e-01	3.000000e-02	0.0	2.400000e-01	3.000000e-02	0.0	2.500000e-01	3.000000e-02	0.0	2.600000e-01	3.000000
[...]
POINT_DATA 10201

SCALARS Height double 1
LOOKUP_TABLE default
9.995839e-01	9.995919e-01	9.995938e-01	9.995930e-01	9.995923e-01	9.995917e-01	9.995908e-01	9.995885e-01	9.995858e-01	9.995834e-01	9.995813e-01	9.995807e-01	9.995869e-01	9.996131e-01	9.996881e-01	9.998870e-01	1.000405e+00	1.001658e+00	1.004134e+00	1.007750e+00	1.011493e+00	1.014098e+00	1.015265e+00	1.015501e+00	1.015362e+00	1.014685e+00	1.013211e+00	1.010759e+00	1.007608e+00	1.004169e+00	1.000849e+00	9.979132e-01	9.955062e-01	9.937235e-01	9.925897e-01	9.920201e-01	9.918398e-01	9.918351e-01	9.919348e-01	9.922337e-01	9.928168e-01	9.936593e-01	9.946027e-01	9.954765e-01	9.961917e-01	9.967361e-01	9.971375e-01	9.974294e-01	9.976370e-01	9.977770e-01	9.978629e-01	9.979112e-01	9.979410e-01	9.979716e-01	9.980403e-01	9.982123e-01	9.986652e-01	9.998147e-01	1.002195e+00	1.005845e+00	1.009863e+00	1.012838e+00	1.014291e+00	1.014656e+00	1.014587e+00	1.014044e+00	1.012729e+00	1.010458e+00	1.007438e+00	1.004080e+00	1.000758e+00	9.977628e-01	9.952565e-01	9.933486e-01	9.920839e-01	9.914027e-01	9.911490e-01	9.911125e-01	9.911769e-01	9.914263e-01	9.919400e-01	9.927313e-01	9.936737e-01	9.945725e-01	9.953132e-01	9.958681e-01	9.962647e-01	9.965445e-01	9.967457e-01	9.968962e-01	9.970136e-01	9.971087e-01	9.971877e-01	9.972536e-01	9.973080e-01	9.973520e-01	9.973868e-01	9.974138e-01	9.974338e-01	9.974461e-01	9.974508e-01	9.995905e-01	9.995981e-01	9.995939e-01	9.995933e-01	9.995926e-01	9.995924e-01	9.995918e-01	9.995906e-01	9.995885e-01	9.995853e-01	9.995806e-01	9.995768e-01	9.995762e-01	9.995858e-01	9.996263e-01	9.997634e-01	1.000209e+00	1.001461e+00	1.004093e+00	1.007911e+00	1.011650e+00	1.014165e+00	1.015276e+00	1.015515e+00	1.015449e+00	1.014877e+00	1.013323e+00	1.010777e+00	1.007546e+00	1.004083e+00	1.000758e+00	9.978122e-01	9.954029e-01	9.936392e-01	9.925401e-01	9.920050e-01	9.918352e-01	9.918190e-01	9.918868e-01	9.921843e-01	9.927938e-01	9.936556e-01	9.946056e-01	9.954781e-01	9.961901e-01	9.967332e-01	9.971352e-01	9.974282e-01	9.976364e-01	9.977758e-01	9.978604e-01	9.979067e-01	9.979323e-01	9.979524e-01	9.979826e-01	9.980840e-01	9.984615e-01	9.995970e-01	1.002115e+00	1.005994e+00	1.010034e+00	1.012928e+00	1.014310e+00	1.014671e+00	1.014652e+00	1.014214e+00	1.012846e+00	1.010485e+00	1.007396e+00	1.003995e+00	1.000664e+00	9.976588e-01	9.951483e-01	9.932547e-01	9.920217e-01	9.913773e-01	9.911422e-01	9.910986e-01	9.911303e-01	9.913643e-01	9.919044e-01	9.927263e-01	9.936759e-01	9.945742e-01	9.953112e-01	9.958641e-01	9.962595e-01	9.965395e-01	9.967414e-01	9.968923e-01	9.970099e-01	9.971049e-01	9.971833e-01	9.972483e-01	9.973016e-01	9.973447e-01	9.973788e-01	9.974051e-01	9.974244e-01	9.974362e-01	9.974397e-01	9.995957e-01	9.996025e-01	9.995993e-01	9.995988e-01	9.995979e-01	9.995974e-01	9.995962e-01	9.995941e-01	9.995897e-01	9.995852e-01	9.995808e-01	9.995776e-01	9.995786e-01	9.995905e-01	9.996309e-01	9.997637e-01	1.000217e+00	1.001519e+00	1.004239e+00	1.008055e+00	1.011678e+00	1.014087e+00	1.015168e+00	1.015428e+00	1.015396e+00	1.014894e+00	1.013316e+00	1.010708e+00	1.007508e+00	1.004118e+00	1.000839e+00	9.979090e-01	9.955084e-01	9.937460e-01	9.926319e-01	9.920676e-01	9.918723e-01	9.918469e-01	9.918975e-01	9.921838e-01	9.928091e-01	9.936803e-01	9.946206e-01	9.954807e-01	9.961861e-01	9.967284e-01	9.971322e-01	9.974274e-01	9.976367e-01	9.977764e-01	9.978606e-01	9.979063e-01	9.979308e-01	9.979492e-01	9.979805e-01	9.980861e-01	9.984753e-01	9.996539e-01	1.002256e+00	1.006155e+00	1.010089e+00	1.012859e+00	1.014199e+00	1.014579e+00	1.014583e+00	1.014222e+00	1.012861e+00	1.010435e+00	1.007352e+00	1.004016e+00	1.000737e+00	9.977531e-01	9.952534e-01	9.933649e-01	9.921206e-01	9.914480e-01	9.911837e-01	9.911300e-01	9.911479e-01	9.913612e-01	9.919174e-01	9.927525e-01	9.936912e-01	9.945749e-01	9.953042e-01	9.958549e-01	9.962514e-01	9.965337e-01	9.967377e-01	9.968903e-01	9.970091e-01	9.971047e-01	9.971837e-01	9.972494e-01	9.973038e-01	9.973480e-01	9.973831e-01	9.974100e-01	9.974294e-01	9.974413e-01	9.974443e-01	9.995935e-01	9.995989e-01	9.995974e-01	9.995970e-01	9.995967e-01	9.995967e-01	9.995960e-01	9.995935e-01	9.995899e-01	9.995853e-01	9.995804e-01	9.995767e-01	9.995768e-01	9.995859e-01	9.996191e-01	9.997365e-01	1.000167e+00	1.001483e+00	1.004268e+00	1.008120e+00	1.011702e+00	1.014041e+00	1.015094e+00	1.015362e+00	1.015341e+00	1.014911e+00	1.013381e+00	1.010722e+00	1.007496e+00	1.004128e+00	1.000883e+00	9.979694e-01	9.955728e-01	9.938045e-01	9.926792e-01	9.921024e-01	9.918947e-01	9.918635e-01	9.918997e-01	9.921556e-01	9.927824e-01	9.936679e-01	9.946068e-01	9.954603e-01	9.961637e-01	9.967087e-01	9.971171e-01	9.974165e-01	9.976283e-01	9.977687e-01	9.978530e-01	9.978982e-01	9.979221e-01	9.979393e-01	9.979670e-01	9.980617e-01	9.984339e-01	9.996190e-01	1.002278e+00	1.006225e+00	1.010127e+00	1.012816e+00	1.014118e+00	1.014502e+00	1.014515e+00	1.014217e+00	1.012923e+00	1.010457e+00	1.007339e+00	1.004019e+00	1.000772e+00	9.978064e-01	9.953126e-01	9.934198e-01	9.921670e-01	9.914852e-01	9.912089e-01	9.911485e-01	9.911584e-01	9.913379e-01	9.918856e-01	9.927384e-01	9.936786e-01	9.945540e-01	9.952797e-01	9.958328e-01	9.962342e-01	9.965212e-01	9.967289e-01	9.968841e-01	9.970041e-01	9.971001e-01	9.971789e-01	9.972446e-01	9.972992e-01	9.973441e-01	9.973800e-01	9.974070e-01	9.974260e-01	9.974369e-01	9.974402e-01	9.995924e-01	9.995984e-01	9.995966e-01	9.995967e-01	9.995959e-01	9.995960e-01	9.995958e-01	9.995939e-01	9.995904e-01	9.995855e-01	9.995800e-01	9.995754e-01	9.995746e-01	9.995820e-01	9.996107e-01	9.997179e-01	1.000128e+00	1.001437e+00	1.004260e+00	1.008144e+00	1.011703e+00	1.013994e+00	1.015013e+00	1.015277e+00	1.015265e+00	1.014885e+00	1.013436e+00	1.010774e+00	1.007509e+00	1.004155e+00	1.000947e+00	9.980582e-01	9.956673e-01	9.938904e-01	9.927495e-01	9.921548e-01	9.919317e-01	9.918919e-01	9.919162e-01	9.921343e-01	9.927387e-01	9.936341e-01	9.945807e-01	9.954326e-01	9.961366e-01	9.966869e-01	9.971015e-01	9.974052e-01	9.976191e-01	9.977603e-01	9.978448e-01	9.978901e-01	9.979137e-01	9.979304e-01	9.979568e-01	9.980456e-01	9.984033e-01	9.995814e-01	1.002269e+00	1.006249e+00	1.010146e+00	1.012779e+00	1.014039e+00	1.014414e+00	1.014431e+00	1.014177e+00	1.012970e+00	1.010516e+00	1.007357e+00	1.004044e+00	1.000828e+00	9.978898e-01	9.954047e-01	9.935055e-01	9.922398e-01	9.915409e-01	9.912499e-01	9.911773e-01	9.911808e-01	9.913276e-01	9.918420e-01	9.927002e-01	9.936516e-01	9.945248e-01	9.952494e-01	9.958072e-01	9.962149e-01	9.965075e-01	9.967193e-01	9.968766e-01	9.969975e-01	9.970939e-01	9.971728e-01	9.972387e-01	9.972939e-01	9.973398e-01	9.973764e-01	9.974037e-01	9.974223e-01	9.974324e-01	9.974360e-01	9.995915e-01	9.995979e-01	9.995955e-01	9.995960e-01	9.995955e-01	9.995956e-01	9.995953e-01	9.995939e-01	9.995910e-01	9.995866e-01	9.995810e-01	9.995761e-01	9.995742e-01	9.995797e-01	9.996051e-01	9.997052e-01	1.000100e+00	1.001391e+00	1.004219e+00	1.008131e+00	1.011685e+00	1.013941e+00	1.014939e+00	1.015197e+00	1.015184e+00	1.014842e+00	1.013484e+00	1.010862e+00	1.007567e+00	1.004207e+00	1.001025e+00	9.981648e-01	9.957792e-01	9.939916e-01	9.928320e-01	9.922170e-01	9.919782e-01	9.919312e-01	9.919473e-01	9.921289e-01	9.926911e-01	9.935808e-01	9.945401e-01	9.953987e-01	9.961067e-01	9.966634e-01	9.970844e-01	9.973915e-01	9.976067e-01	9.977484e-01	9.978331e-01	9.978785e-01	9.979024e-01	9.979192e-01	9.979452e-01	9.980309e-01	9.983788e-01	9.995448e-01	1.002237e+00	1.006234e+00	1.010111e+00	1.012718e+00	1.013958e+00	1.014326e+00	1.014344e+00	1.014120e+00	1.013001e+00	1.010602e+00	1.007421e+00	1.004092e+00	1.000899e+00	9.979895e-01	9.955127e-01	9.936054e-01	9.923228e-01	9.916050e-01	9.912986e-01	9.912155e-01	9.912133e-01	9.913304e-01	9.917998e-01	9.926430e-01	9.936079e-01	9.944885e-01	9.952163e-01	9.957792e-01	9.961942e-01	9.964927e-01	9.967081e-01	9.968669e-01	9.969883e-01	9.970850e-01	9.971643e-01	9.972307e-01	9.972866e-01	9.973330e-01	9.973700e-01	9.973974e-01	9.974164e-01	9.974269e-01	9.974317e-01	9.995905e-01	9.995979e-01	9.995949e-01	9.995958e-01	9.995955e-01	9.995952e-01	9.995950e-01	9.995938e-01	9.995916e-01	9.995879e-01	9.995831e-01	9.995784e-01	9.995756e-01	9.995789e-01	9.996009e-01	9.996963e-01	1.000082e+00	1.001353e+00	1.004160e+00	1.008072e+00	1.011626e+00	1.013867e+00	1.014858e+00	1.015114e+00	1.015102e+00	1.014793e+00	1.013526e+00	1.010976e+00	1.007678e+00	1.004292e+00	1.001124e+00	9.982883e-01	9.959083e-01	9.941083e-01	9.929268e-01	9.922891e-01	9.920330e-01	9.919791e-01	9.919917e-01	9.921426e-01	9.926533e-01	9.935214e-01	9.944915e-01	9.953630e-01	9.960770e-01	9.966389e-01	9.970650e-01	9.973758e-01	9.975932e-01	9.977355e-01	9.978205e-01	9.978665e-01	9.978909e-01	9.979080e-01	9.979338e-01	9.980187e-01	9.983627e-01	9.995171e-01	1.002191e+00	1.006176e+00	1.010044e+00	1.012638e+00	1.013868e+00	1.014234e+00	1.014254e+00	1.014054e+00	1.013022e+00	1.010708e+00	1.007531e+00	1.004176e+00	1.000995e+00	9.981078e-01	9.956386e-01	9.937212e-01	9.924177e-01	9.916774e-01	9.913534e-01	9.912635e-01	9.912567e-01	9.913503e-01	9.917714e-01	9.925833e-01	9.935540e-01	9.944496e-01	9.951824e-01	9.957498e-01	9.961715e-01	9.964760e-01	9.966948e-01	9.968552e-01	9.969776e-01	9.970750e-01	9.971551e-01	9.972223e-01	9.972784e-01	9.973245e-01	9.973611e-01	9.973892e-01	9.974101e-01	9.974224e-01	9.974294e-01	9.995903e-01	9.995981e-01	9.995944e-01	9.995951e-01	9.995944e-01	9.995941e-01	9.995938e-01	9.995926e-01	9.995915e-01	9.995893e-01	9.995852e-01	9.995804e-01	9.995769e-01	9.995781e-01	9.995975e-01	9.996896e-01	1.000072e+00	1.001323e+00	1.004091e+00	1.007971e+00	1.011520e+00	1.013764e+00	1.014760e+00	1.015019e+00	1.015012e+00	1.014739e+00	1.013564e+00	1.011109e+00	1.007835e+00	1.004429e+00	1.001254e+00	9.984295e-01	9.960546e-01	9.942402e-01	9.930334e-01	9.923696e-01	9.920956e-01	9.920323e-01	9.920428e-01	9.921656e-01	9.926231e-01	9.934601e-01	9.944379e-01	9.953246e-01	9.960453e-01	9.966103e-01	9.970402e-01	9.973563e-01	9.975774e-01	9.977220e-01	9.978089e-01	9.978567e-01	9.978820e-01	9.978994e-01	9.979255e-01	9.980116e-01	9.983565e-01	9.995023e-01	1.002147e+00	1.006093e+00	1.009942e+00	1.012530e+00	1.013763e+00	1.014134e+00	1.014156e+00	1.013976e+00	1.013031e+00	1.010825e+00	1.007690e+00	1.004319e+00	1.001123e+00	9.982448e-01	9.957823e-01	9.938527e-01	9.925245e-01	9.917585e-01	9.914158e-01	9.913164e-01	9.913071e-01	9.913817e-01	9.917546e-01	9.925265e-01	9.934967e-01	9.944065e-01	9.951463e-01	9.957165e-01	9.961434e-01	9.964541e-01	9.966771e-01	9.968410e-01	9.969665e-01	9.970663e-01	9.971481e-01	9.972162e-01	9.972720e-01	9.973173e-01	9.973536e-01	9.973827e-01	9.974056e-01	9.974194e-01	9.974286e-01	9.995896e-01	9.995975e-01	9.995930e-01	9.995939e-01	9.995930e-01	9.995924e-01	9.995921e-01	9.995911e-01	9.995894e-01	9.995871e-01	9.995844e-01	9.995803e-01	9.995756e-01	9.995754e-01	9.995931e-01	9.996840e-01	1.000064e+00	1.001296e+00	1.004017e+00	1.007849e+00	1.011379e+00	1.013628e+00	1.014638e+00	1.014909e+00	1.014903e+00	1.014665e+00	1.013585e+00	1.011243e+00	1.008027e+00	1.004615e+00	1.001419e+00	9.985933e-01	9.962203e-01	9.943901e-01	9.931540e-01	9.924592e-01	9.921633e-01	9.920896e-01	9.920967e-01	9.921933e-01	9.925937e-01	9.933895e-01	9.943682e-01	9.952729e-01	9.960059e-01	9.965749e-01	9.970082e-01	9.973299e-01	9.975571e-01	9.977072e-01	9.977985e-01	9.978490e-01	9.978758e-01	9.978939e-01	9.979216e-01	9.980114e-01	9.983604e-01	9.994983e-01	1.002104e+00	1.005995e+00	1.009807e+00	1.012389e+00	1.013634e+00	1.014018e+00	1.014047e+00	1.013887e+00	1.013023e+00	1.010937e+00	1.007877e+00	1.004507e+00	1.001289e+00	9.984066e-01	9.959461e-01	9.940030e-01	9.926469e-01	9.918509e-01	9.914859e-01	9.913749e-01	9.913614e-01	9.914191e-01	9.917424e-01	9.924659e-01	9.934265e-01	9.943481e-01	9.951005e-01	9.956764e-01	9.961065e-01	9.964226e-01	9.966534e-01	9.968244e-01	9.969556e-01	9.970596e-01	9.971442e-01	9.972134e-01	9.972694e-01	9.973144e-01	9.973507e-01	9.973797e-01	9.974025e-01	9.974158e-01	9.974262e-01	9.995868e-01	9.995960e-01	9.995908e-01	9.995918e-01	9.995907e-01	9.995899e-01	9.995892e-01	9.995884e-01	9.995862e-01	9.995833e-01	9.995795e-01	9.995751e-01	9.995708e-01	9.995695e-01	9.995865e-01	9.996770e-01	1.000054e+00	1.001268e+00	1.003937e+00	1.007711e+00	1.011213e+00	1.013467e+00	1.014494e+00	1.014780e+00	1.014780e+00	1.014570e+00	1.013578e+00	1.011356e+00	1.008221e+00	1.004826e+00	1.001615e+00	9.987800e-01	9.964039e-01	9.945582e-01	9.932898e-01	9.925580e-01	9.922333e-01	9.921455e-01	9.921484e-01	9.922216e-01	9.925610e-01	9.933027e-01	9.942735e-01	9.951986e-01	9.959506e-01	9.965286e-01	9.969675e-01	9.972957e-01	9.975310e-01	9.976889e-01	9.977863e-01	9.978401e-01	9.978690e-01	9.978891e-01	9.979195e-01	9.980143e-01	9.983686e-01	9.994980e-01	1.002060e+00	1.005882e+00	1.009650e+00	1.012224e+00	1.013482e+00	1.013882e+00	1.013919e+00	1.013786e+00	1.012998e+00	1.011033e+00	1.008069e+00	1.004726e+00	1.001493e+00	9.985968e-01	9.961312e-01	9.941747e-01	9.927897e-01	9.919590e-01	9.915651e-01	9.914375e-01	9.914190e-01	9.914605e-01	9.917308e-01	9.923960e-01	9.933361e-01	9.942698e-01	9.950404e-01	9.956259e-01	9.960604e-01	9.963828e-01	9.966231e-01	9.968043e-01	9.969435e-01	9.970527e-01	9.971400e-01	9.972108e-01	9.972679e-01	9.973138e-01	9.973503e-01	9.973782e-01	9.973987e-01	9.974093e-01	9.974196e-01	9.995837e-01	9.995933e-01	9.995865e-01	9.995876e-01	9.995864e-01	9.995857e-01	9.995849e-01	9.995837e-01	9.995819e-01	9.995781e-01	9.995736e-01	9.995684e-01	9.995630e-01	9.995625e-01	9.995792e-01	9.996705e-01	1.000047e+00	1.001241e+00	1.003851e+00	1.007557e+00	1.011028e+00	1.013289e+00	1.014334e+00	1.014633e+00	1.014638e+00	1.014453e+00	1.013546e+00	1.011443e+00	1.008402e+00	1.005043e+00	1.001831e+00	9.989853e-01	9.966013e-01	9.947400e-01	9.934387e-01	9.926657e-01	9.923054e-01	9.921973e-01	9.921947e-01	9.922482e-01	9.925237e-01	9.931960e-01	9.941447e-01	9.950883e-01	9.958684e-01	9.964666e-01	9.969175e-01	9.972547e-01	9.974991e-01	9.976650e-01	9.977679e-01	9.978259e-01	9.978575e-01	9.978806e-01	9.979153e-01	9.980167e-01	9.983780e-01	9.994977e-01	1.002007e+00	1.005752e+00	1.009473e+00	1.012043e+00	1.013313e+00	1.013729e+00	1.013773e+00	1.013664e+00	1.012954e+00	1.011113e+00	1.008253e+00	1.004955e+00	1.001722e+00	9.988113e-01	9.963359e-01	9.943661e-01	9.929531e-01	9.920842e-01	9.916550e-01	9.915050e-01	9.914793e-01	9.915047e-01	9.917187e-01	9.923131e-01	9.932183e-01	9.941604e-01	9.949556e-01	9.955607e-01	9.960070e-01	9.963386e-01	9.965885e-01	9.967793e-01	9.969265e-01	9.970408e-01	9.971314e-01	9.972044e-01	9.972636e-01	9.973111e-01	9.973477e-01	9.973738e-01	9.973909e-01	9.973977e-01	9.974069e-01	9.995797e-01	9.995889e-01	9.995812e-01	9.995824e-01	9.995811e-01	9.995802e-01	9.995792e-01	9.995779e-01	9.995756e-01	9.995719e-01	9.995667e-01	9.995615e-01	9.995569e-01	9.995557e-01	9.995741e-01	9.996680e-01	1.000046e+00	1.001218e+00	1.003759e+00	1.007385e+00	1.010824e+00	1.013096e+00	1.014161e+00	1.014471e+00	1.014478e+00	1.014317e+00	1.013494e+00	1.011519e+00	1.008580e+00	1.005268e+00	1.002063e+00	9.992086e-01	9.968119e-01	9.949320e-01	9.935979e-01	9.927824e-01	9.923821e-01	9.922481e-01	9.922364e-01	9.922719e-01	9.924843e-01	9.930753e-01	9.939858e-01	9.949418e-01	9.957556e-01	9.963849e-01	9.968567e-01	9.972063e-01	9.974585e-01	9.976306e-01	9.977381e-01	9.978006e-01	9.978362e-01	9.978633e-01	9.979027e-01	9.980115e-01	9.983814e-01	9.994917e-01	1.001942e+00	1.005600e+00	1.009272e+00	1.011846e+00	1.013137e+00	1.013568e+00	1.013618e+00	1.013522e+00	1.012892e+00	1.011180e+00	1.008431e+00	1.005187e+00	1.001963e+00	9.990429e-01	9.965557e-01	9.945710e-01	9.931306e-01	9.922226e-01	9.917544e-01	9.915762e-01	9.915397e-01	9.915496e-01	9.917072e-01	9.922205e-01	9.930764e-01	9.940209e-01	9.948446e-01	9.954797e-01	9.959480e-01	9.962929e-01	9.965515e-01	9.967489e-01	9.969011e-01	9.970194e-01	9.971132e-01	9.971892e-01	9.972509e-01	9.972999e-01	9.973366e-01	9.973613e-01	9.973763e-01	9.973812e-01	9.973902e-01	9.995800e-01	9.995868e-01	9.995777e-01	9.995788e-01	9.995770e-01	9.995755e-01	9.995740e-01	9.995723e-01	9.995696e-01	9.995653e-01	9.995601e-01	9.995555e-01	9.995530e-01	9.995526e-01	9.995725e-01	9.996710e-01	1.000050e+00	1.001198e+00	1.003663e+00	1.007196e+00	1.010595e+00	1.012882e+00	1.013976e+00	1.014307e+00	1.014323e+00	1.014189e+00	1.013457e+00	1.011625e+00	1.008784e+00	1.005521e+00	1.002327e+00	9.994621e-01	9.970466e-01	9.951417e-01	9.937717e-01	9.929119e-01	9.924688e-01	9.923038e-01	9.922778e-01	9.922969e-01	9.924503e-01	9.929555e-01	9.938134e-01	9.947736e-01	9.956197e-01	9.962839e-01	9.967816e-01	9.971461e-01	9.974050e-01	9.975790e-01	9.976883e-01	9.977541e-01	9.977952e-01	9.978280e-01	9.978745e-01	9.979914e-01	9.983709e-01	9.994742e-01	1.001865e+00	1.005427e+00	1.009042e+00	1.011624e+00	1.012949e+00	1.013402e+00	1.013459e+00	1.013375e+00	1.012821e+00	1.011244e+00	1.008611e+00	1.005427e+00	1.002218e+00	9.992902e-01	9.967891e-01	9.947861e-01	9.933165e-01	9.923679e-01	9.918584e-01	9.916493e-01	9.915953e-01	9.915932e-01	9.916994e-01	9.921277e-01	9.929247e-01	9.938636e-01	9.947145e-01	9.953848e-01	9.958812e-01	9.962437e-01	9.965114e-01	9.967132e-01	9.968677e-01	9.969878e-01	9.970836e-01	9.971615e-01	9.972247e-01	9.972745e-01	9.973120e-01	9.973381e-01	9.973554e-01	9.973621e-01	9.973732e-01	9.995980e-01	9.995974e-01	9.995848e-01	9.995840e-01	9.995807e-01	9.995779e-01	9.995751e-01	9.995724e-01	9.995688e-01	9.995639e-01	9.995584e-01	9.995545e-01	9.995526e-01	9.995529e-01	9.995740e-01	9.996782e-01	1.000059e+00	1.001185e+00	1.003573e+00	1.007006e+00	1.010356e+00	1.012663e+00	1.013807e+00	1.014180e+00	1.014216e+00	1.014112e+00	1.013477e+00	1.011768e+00	1.009041e+00	1.005832e+00	1.002648e+00	9.997688e-01	9.973274e-01	9.953885e-01	9.939759e-01	9.930655e-01	9.925755e-01	9.923758e-01	9.923282e-01	9.923344e-01	9.924362e-01	9.928524e-01	9.936494e-01	9.946050e-01	9.954763e-01	9.961709e-01	9.966931e-01	9.970725e-01	9.973377e-01	9.975134e-01	9.976235e-01	9.976907e-01	9.977346e-01	9.977722e-01	9.978258e-01	9.979564e-01	9.983513e-01	9.994496e-01	1.001780e+00	1.005237e+00	1.008783e+00	1.011371e+00	1.012738e+00	1.013225e+00	1.013294e+00	1.013228e+00	1.012750e+00	1.011312e+00	1.008805e+00	1.005687e+00	1.002496e+00	9.995616e-01	9.970434e-01	9.950161e-01	9.935120e-01	9.925186e-01	9.919640e-01	9.917214e-01	9.916482e-01	9.916356e-01	9.917012e-01	9.920482e-01	9.927786e-01	9.937033e-01	9.945767e-01	9.952791e-01	9.958041e-01	9.961865e-01	9.964656e-01	9.966729e-01	9.968298e-01	9.969513e-01	9.970481e-01	9.971262e-01	9.971893e-01	9.972397e-01	9.972797e-01	9.973106e-01	9.973335e-01	9.973440e-01	9.973583e-01	9.996649e-01	9.996450e-01	9.996232e-01	9.996163e-01	9.996090e-01	9.996034e-01	9.995983e-01	9.995939e-01	9.995891e-01	9.995832e-01	9.995780e-01	9.995751e-01	9.995759e-01	9.995777e-01	9.996005e-01	9.997098e-01	1.000092e+00	1.001188e+00	1.003507e+00	1.006849e+00	1.010157e+00	1.012494e+00	1.013697e+00	1.014112e+00	1.014163e+00	1.014083e+00	1.013526e+00	1.011958e+00	1.009357e+00	1.006215e+00	1.003046e+00	1.000154e+00	9.976828e-01	9.957024e-01	9.942381e-01	9.932695e-01	9.927232e-01	9.924814e-01	9.924099e-01	9.924034e-01	9.924625e-01	9.927891e-01	9.935136e-01	9.944545e-01	9.953478e-01	9.960707e-01	9.966140e-01	9.970057e-01	9.972772e-01	9.974557e-01	9.975666e-01	9.976337e-01	9.976773e-01	9.977159e-01	9.977743e-01	9.979163e-01	9.983297e-01	9.994287e-01	1.001695e+00	1.005036e+00	1.008499e+00	1.011084e+00	1.012496e+00	1.013028e+00	1.013120e+00	1.013073e+00	1.012676e+00	1.011385e+00	1.009015e+00	1.005974e+00	1.002807e+00	9.998690e-01	9.973312e-01	9.952731e-01	9.937269e-01	9.926825e-01	9.920762e-01	9.917949e-01	9.917030e-01	9.916834e-01	9.917200e-01	9.919899e-01	9.926439e-01	9.935453e-01	9.944358e-01	9.951667e-01	9.957180e-01	9.961206e-01	9.964136e-01	9.966298e-01	9.967926e-01	9.969179e-01	9.970166e-01	9.970953e-01	9.971586e-01	9.972104e-01	9.972533e-01	9.972883e-01	9.973153e-01	9.973284e-01	9.973452e-01	9.998644e-01	9.998022e-01	9.997616e-01	9.997398e-01	9.997224e-01	9.997107e-01	9.997026e-01	9.996963e-01	9.996906e-01	9.996841e-01	9.996795e-01	9.996795e-01	9.996844e-01	9.996925e-01	9.997213e-01	9.998352e-01	1.000215e+00	1.001280e+00	1.003506