# vtk DataFile Version 3.0
vtk output
ASCII
DATASET STRUCTURED_GRID
DIMENSIONS 101 101 1
POINTS 10201 double
0.000000e+00	0.000000e+00	0.0	1.000000e-02	0.000000e+00	0.0	2.000000e-02	0.000000e+00	0.0	3.000000e-02	0.000000e+00	0.0	4.000000e-02	0.000000e+00	0.0	5.000000e-02	0.000000e+00	0.0	6.000000e-02	0.000000e+00	0.0	7.000000e-02	0.000000e+00	0.0	8.000000e-02	0.000000e+00	0.0	9.000000e-02	0.000000e+00	0.0	1.000000e-01	0.000000e+00	0.0	1.100000e-01	0.000000e+00	0.0	1.200000e-01	0.000000e+00	0.0	1.300000e-01	0.000000e+00	0.0	1.400000e-01	0.000000e+00	0.0	1.500000e-01	0.000000e+00	0.0	1.600000e-01	0.000000e+00	0.0	1.700000e-01	0.000000e+00	0.0	1.800000e-01	0.000000e+00	0.0	1.900000e-01	0.000000e+00	0.0	2.000000e-01	0.000000e+00	0.0	2.100000e-01	0.000000e+00	0.0	2.200000e-01	0.000000e+00	0.0	2.300000e-01	0.000000e+00	0.0	2.400000e-01	0.000000e+00	0.0	2.500000e-01	0.000000e+00	0.0	2.600000e-01	0.000000e+00	0.0	2.700000e-01	0.000000e+00	0.0	2.800000e-01	0.000000e+00	0.0	2.900000e-01	0.000000e+00	0.0	3.000000e-01	0.000000e+00	0.0	3.100000e-01	0.000000e+00	0.0	3.200000e-01	0.000000e+00	0.0	3.300000e-01	0.000000e+00	0.0	3.400000e-01	0.000000e+00	0.0	3.500000e-01	0.000000e+00	0.0	3.600000e-01	0.000000e+00	0.0	3.700000e-01	0.000000e+00	0.0	3.800000e-01	0.000000e+00	0.0	3.900000e-01	0.000000e+00	0.0	4.000000e-01	0.000000e+00	0.0	4.100000e-01	0.000000e+00	0.0	4.200000e-01	0.000000e+00	0.0	4.300000e-01	0.000000e+00	0.0	4.400000e-01	0.000000e+00	0.0	4.500000e-01	0.000000e+00	0.0	4.600000e-01	0.000000e+00	0.0	4.700000e-01	0.000000e+00	0.0	4.800000e-01	0.000000e+00	0.0	4.900000e-01	0.000000e+00	0.0	5.000000e-01	0.000000e+00	0.0	5.100000e-01	0.000000e+00	0.0	5.200000e-01	0.000000e+00	0.0	5.300000e-01	0.000000e+00	0.0	5.400000e-01	0.000000e+00	0.0	5.500000e-01	0.000000e+00	0.0	5.600000e-01	0.000000e+00	0.0	5.700000e-01	0.000000e+00	0.0	5.800000e-01	0.000000e+00	0.0	5.900000e-01	0.000000e+00	0.0	6.000000e-01	0.000000e+00	0.0	6.100000e-01	0.000000e+00	0.0	6.200000e-01	0.000000e+00	0.0	6.300000e-01	0.000000e+00	0.0	6.400000e-01	0.000000e+00	0.0	6.500000e-01	0.000000e+00	0.0	6.600000e-01	0.000000e+00	0.0	6.700000e-01	0.000000e+00	0.0	6.800000e-01	0.000000e+00	0.0	6.900000e-01	0.000000e+00	0.0	7.000000e-01	0.000000e+00	0.0	7.100000e-01	0.000000e+00	0.0	7.200000e-01	0.000000e+00	0.0	7.300000e-01	0.000000e+00	0.0	7.400000e-01	0.000000e+00	0.0	7.500000e-01	0.000000e+00	0.0	7.600000e-01	0.000000e+00	0.0	7.700000e-01	0.000000e+00	0.0	7.800000e-01	0.000000e+00	0.0	7.900000e-01	0.000000e+00	0.0	8.000000e-01	0.000000e+00	0.0	8.100000e-01	0.000000e+00	0.0	8.200000e-01	0.000000e+00	0.0	8.300000e-01	0.000000e+00	0.0	8.400000e-01	0.000000e+00	0.0	8.500000e-01	0.000000e+00	0.0	8.600000e-01	0.000000e+00	0.0	8.700000e-01	0.000000e+00	0.0	8.800000e-01	0.000000e+00	0.0	8.900000e-01	0.000000e+00	0.0	9.000000e-01	0.000000e+00	0.0	9.100000e-01	0.000000e+00	0.0	9.200000e-01	0.000000e+00	0.0	9.300000e-01	0.000000e+00	0.0	9.400000e-01	0.000000e+00	0.0	9.500000e-01	0.000000e+00	0.0	9.600000e-01	0.000000e+00	0.0	9.700000e-01	0.000000e+00	0.0	9.800000e-01	0.000000e+00	0.0	9.900000e-01	0.000000e+00	0.0	1.000000e+00	0.000000e+00	0.0	0.000000e+00	1.000000e-02	0.0	1.000000e-02	1.000000e-02	0.0	2.000000e-02	1.000000e-02	0.0	3.000000e-02	1.000000e-02	0.0	4.000000e-02	1.000000e-02	0.0	5.000000e-02	1.000000e-02	0.0	6.000000e-02	1.000000e-02	0.0	7.000000e-02	1.000000e-02	0.0	8.000000e-02	1.000000e-02	0.0	9.000000e-02	1.000000e-02	0.0	1.000000e-01	1.000000e-02	0.0	1.100000e-01	1.000000e-02	0.0	1.200000e-01	1.000000e-02	0.0	1.300000e-01	1.000000e-02	0.0	1.400000e-01	1.000000e-02	0.0	1.500000e-01	1.000000e-02	0.0	1.600000e-01	1.000000e-02	0.0	1.700000e-01	1.000000e-02	0.0	1.800000e-01	1.000000e-02	0.0	1.900000e-01	1.000000e-02	0.0	2.000000e-01	1.000000e-02	0.0	2.100000e-01	1.000000e-02	0.0	2.200000e-01	1.000000e-02	0.0	2.300000e-01	1.000000e-02	0.0	2.400000e-01	1.000000e-02	0.0	2.500000e-01	1.000000e-02	0.0	2.600000e-01	1.000000e-02	0.0	2.700000e-01	1.000000e-02	0.0	2.800000e-01	1.000000e-02	0.0	2.900000e-01	1.000000e-02	0.0	3.000000e-01	1.000000e-02	0.0	3.100000e-01	1.000000e-02	0.0	3.200000e-01	1.000000e-02	0.0	3.300000e-01	1.000000e-02	0.0	3.400000e-01	1.000000e-02	0.0	3.500000e-01	1.000000e-02	0.0	3.600000e-01	1.000000e-02	0.0	3.700000e-01	1.000000e-02	0.0	3.800000e-01	1.000000e-02	0.0	3.900000e-01	1.000000e-02	0.0	4.000000e-01	1.000000e-02	0.0	4.100000e-01	1.000000e-02	0.0	4.200000e-01	1.000000e-02	0.0	4.300000e-01	1.000000e-02	0.0	4.400000e-01	1.000000e-02	0.0	4.500000e-01	1.000000e-02	0.0	4.600000e-01	1.000000e-02	0.0	4.700000e-01	1.000000e-02	0.0	4.800000e-01	1.000000e-02	0.0	4.900000e-01	1.000000e-02	0.0	5.000000e-01	1.000000e-02	0.0	5.100000e-01	1.000000e-02	0.0	5.200000e-01	1.000000e-02	0.0	5.300000e-01	1.000000e-02	0.0	5.400000e-01	1.000000e-02	0.0	5.500000e-01	1.000000e-02	0.0	5.600000e-01	1.000000e-02	0.0	5.700000e-01	1.000000e-02	0.0	5.800000e-01	1.000000e-02	0.0	5.900000e-01	1.000000e-02	0.0	6.000000e-01	1.000000e-02	0.0	6.100000e-01	1.000000e-02	0.0	6.200000e-01	1.000000e-02	0.0	6.300000e-01	1.000000e-02	0.0	6.400000e-01	1.000000e-02	0.0	6.500000e-01	1.000000e-02	0.0	6.600000e-01	1.000000e-02	0.0	6.700000e-01	1.000000e-02	0.0	6.800000e-01	1.000000e-02	0.0	6.900000e-01	1.000000e-02	0.0	7.000000e-01	1.000000e-02	0.0	7.100000e-01	1.000000e-02	0.0	7.200000e-01	1.000000e-02	0.0	7.300000e-01	1.000000e-02	0.0	7.400000e-01	1.000000e-02	0.0	7.500000e-01	1.000000e-02	0.0	7.600000e-01	1.000000e-02	0.0	7.700000e-01	1.000000e-02	0.0	7.800000e-01	1.000000e-02	0.0	7.900000e-01	1.000000e-02	0.0	8.000000e-01	1.000000e-02	0.0	8.100000e-01	1.000000e-02	0.0	8.200000e-01	1.000000e-02	0.0	8.300000e-01	1.000000e-02	0.0	8.400000e-01	1.000000e-02	0.0	8.500000e-01	1.000000e-02	0.0	8.600000e-01	1.000000e-02	0.0	8.700000e-01	1.000000e-02	0.0	8.800000e-01	1.000000e-02	0.0	8.900000e-01	1.000000e-02	0.0	9.000000e-01	1.000000e-02	0.0	9.100000e-01	1.000000e-02	0.0	9.200000e-01	1.000000e-02	0.0	9.300000e-01	1.000000e-02	0.0	9.400000e-01	1.000000e-02	0.0	9.500000e-01	1.000000e-02	0.0	9.600000e-01	1.000000e-02	0.0	9.700000e-01	1.000000e-02	0.0	9.800000e-01	1.000000e-02	0.0	9.900000e-01	1.000000e-02	0.0	1.000000e+00	1.000000e-02	0.0	0.000000e+00	2.000000e-02	0.0	1.000000e-02	2.000000e-02	0.0	2.000000e-02	2.000000e-02	0.0	3.000000e-02	2.000000e-02	0.0	4.000000e-02	2.000000e-02	0.0	5.000000e-02	2.000000e-02	0.0	6.000000e-02	2.000000e-02	0.0	7.000000e-02	2.000000e-02	0.0	8.000000e-02	2.000000e-02	0.0	9.000000e-02	2.000000e-02	0.0	1.000000e-01	2.000000e-02	0.0	1.100000e-01	2.000000e-02	0.0	1.200000e-01	2.000000e-02	0.0	1.300000e-01	2.000000e-02	0.0	1.400000e-01	2.000000e-02	0.0	1.500000e-01	2.000000e-02	0.0	1.600000e-01	2.000000e-02	0.0	1.700000e-01	2.000000e-02	0.0	1.800000e-01	2.000000e-02	0.0	1.900000e-01	2.000000e-02	0.0	2.000000e-01	2.000000e-02	0.0	2.100000e-01	2.000000e-02	0.0	2.200000e-01	2.000000e-02	0.0	2.300000e-01	2.000000e-02	0.0	2.400000e-01	2.000000e-02	0.0	2.500000e-01	2.000000e-02	0.0	2.600000e-01	2.000000e-02	0.0	2.700000e-01	2.000000e-02	0.0	2.800000e-01	2.000000e-02	0.0	2.900000e-01	2.000000e-02	0.0	3.000000e-01	2.000000e-02	0.0	3.100000e-01	2.000000e-02	0.0	3.200000e-01	2.000000e-02	0.0	3.300000e-01	2.000000e-02	0.0	3.400000e-01	2.000000e-02	0.0	3.500000e-01	2.000000e-02	0.0	3.600000e-01	2.000000e-02	0.0	3.700000e-01	2.000000e-02	0.0	3.800000e-01	2.000000e-02	0.0	3.900000e-01	2.000000e-02	0.0	4.000000e-01	2.000000e-02	0.0	4.100000e-01	2.000000e-02	0.0	4.200000e-01	2.000000e-02	0.0	4.300000e-01	2.000000e-02	0.0	4.400000e-01	2.000000e-02	0.0	4.500000e-01	2.000000e-02	0.0	4.600000e-01	2.000000e-02	0.0	4.700000e-01	2.000000e-02	0.0	4.800000e-01	2.000000e-02	0.0	4.900000e-01	2.000000e-02	0.0	5.000000e-01	2.000000e-02	0.0	5.100000e-01	2.000000e-02	0.0	5.200000e-01	2.000000e-02	0.0	5.300000e-01	2.000000e-02	0.0	5.400000e-01	2.000000e-02	0.0	5.500000e-01	2.000000e-02	0.0	5.600000e-01	2.000000e-02	0.0	5.700000e-01	2.000000e-02	0.0	5.800000e-01	2.000000e-02	0.0	5.900000e-01	2.000000e-02	0.0	6.000000e-01	2.000000e-02	0.0	6.100000e-01	2.000000e-02	0.0	6.200000e-01	2.000000e-02	0.0	6.300000e-01	2.000000e-02	0.0	6.400000e-01	2.000000e-02	0.0	6.500000e-01	2.000000e-02	0.0	6.600000e-01	2.000000e-02	0.0	6.700000e-01	2.000000e-02	0.0	6.800000e-01	2.000000e-02	0.0	6.900000e-01	2.000000e-02	0.0	7.000000e-01	2.000000e-02	0.0	7.100000e-01	2.000000e-02	0.0	7.200000e-01	2.000000e-02	0.0	7.300000e-01	2.000000e-02	0.0	7.400000e-01	2.000000e-02	0.0	7.500000e-01	2.000000e-02	0.0	7.600000e-01	2.000000e-02	0.0	7.700000e-01	2.000000e-02	0.0	7.800000e-01	2.000000e-02	0.0	7.900000e-01	2.000000e-02	0.0	8.000000e-01	2.000000e-02	0.0	8.100000e-01	2.000000e-02	0.0	8.200000e-01	2.000000e-02	0.0	8.300000e-01	2.000000e-02	0.0	8.400000e-01	2.000000e-02	0.0	8.500000e-01	2.000000e-02	0.0	8.600000e-01	2.000000e-02	0.0	8.700000e-01	2.000000e-02	0.0	8.800000e-01	2.000000e-02	0.0	8.900000e-01	2.000000e-02	0.0	9.000000e-01	2.000000e-02	0.0	9.100000e-01	2.000000e-02	0.0	9.200000e-01	2.000000e-02	0.0	9.300000e-01	2.000000e-02	0.0	9.400000e-01	2.000000e-02	0.0	9.500000e-01	2.000000e-02	0.0	9.600000e-01	2.000000e-02	0.0	9.700000e-01	2.000000e-02	0.0	9.800000e-01	2.000000e-02	0.0	9.900000e-01	2.000000e-02	0.0	1.000000e+00	2.000000e-02	0.0	0.000000e+00	3.000000e-02	0.0	1.000000e-02	3.000000e-02	0.0	2.000000e-02	3.000000e-02	0.0	3.000000e-02	3.000000e-02	0.0	4.000000e-02	3.000000e-02	0.0	5.000000e-02	3.000000e-02	0.0	6.000000e-02	3.000000e-02	0.0	7.000000e-02	3.000000e-02	0.0	8.000000e-02	3.000000e-02	0.0	9.000000e-02	3.000000e-02	0.0	1.000000e-01	3.000000e-02	0.0	1.100000e-01	3.000000e-02	0.0	1.200000e-01	3.000000e-02	0.0	1.300000e-01	3.000000e-02	0.0	1.400000e-01	3.000000e-02	0.0	1.500000e-01	3.000000e-02	0.0	1.600000e-01	3.000000e-02	0.0	1.700000e-01	3.000000e-02	0.0	1.800000e-01	3.000000e-02	0.0	1.900000e-01	3.000000e-02	0.0	2.000000e-01	3.000000e-02	0.0	2.100000e-01	3.000000e-02	0.0	2.200000e-01	3.000000e-02	0.0	2.300000e-01	3.000000e-02	0.0	2.400000e-01	3.000000e-02	0.0	2.500000e-01	3.000000e-02	0.0	2.600000e-01	3.000000
[...]
POINT_DATA 10201

SCALARS Height double 1
LOOKUP_TABLE default
9.947060e-01	9.946830e-01	9.946946e-01	9.946495e-01	9.946017e-01	9.945320e-01	9.944354e-01	9.943130e-01	9.941666e-01	9.939879e-01	9.937732e-01	9.935191e-01	9.932197e-01	9.928659e-01	9.924247e-01	9.918222e-01	9.909153e-01	9.895163e-01	9.875124e-01	9.850197e-01	9.824544e-01	9.803404e-01	9.789498e-01	9.783513e-01	9.784999e-01	9.800285e-01	9.835881e-01	9.890898e-01	9.962979e-01	1.004794e+00	1.013859e+00	1.022446e+00	1.029442e+00	1.034114e+00	1.036264e+00	1.036222e+00	1.032281e+00	1.022317e+00	1.010387e+00	1.002254e+00	9.986393e-01	9.974129e-01	9.970511e-01	9.969405e-01	9.968877e-01	9.968306e-01	9.967403e-01	9.966031e-01	9.964219e-01	9.962044e-01	9.959544e-01	9.956711e-01	9.953493e-01	9.949788e-01	9.945357e-01	9.939626e-01	9.931316e-01	9.918450e-01	9.899354e-01	9.874519e-01	9.847693e-01	9.824437e-01	9.808599e-01	9.801211e-01	9.801160e-01	9.813479e-01	9.845960e-01	9.898900e-01	9.970495e-01	1.005662e+00	1.014983e+00	1.023909e+00	1.031270e+00	1.036290e+00	1.038743e+00	1.038934e+00	1.035485e+00	1.025828e+00	1.013616e+00	1.005181e+00	1.001545e+00	1.000397e+00	1.000094e+00	1.000022e+00	1.000005e+00	1.000001e+00	1.000000e+00	1.000000e+00	1.000000e+00	1.000000e+00	1.000000e+00	1.000000e+00	1.000000e+00	1.000000e+00	1.000000e+00	1.000000e+00	1.000000e+00	1.000000e+00	1.000000e+00	1.000000e+00	1.000000e+00	9.946830e-01	9.946504e-01	9.946667e-01	9.946209e-01	9.945704e-01	9.944979e-01	9.944002e-01	9.942760e-01	9.941253e-01	9.939413e-01	9.937208e-01	9.934601e-01	9.931532e-01	9.927911e-01	9.923372e-01	9.917060e-01	9.907625e-01	9.893283e-01	9.873001e-01	9.847974e-01	9.822061e-01	9.800196e-01	9.786986e-01	9.783723e-01	9.785777e-01	9.801044e-01	9.837187e-01	9.892960e-01	9.965485e-01	1.005055e+00	1.014117e+00	1.022762e+00	1.030011e+00	1.034764e+00	1.036292e+00	1.036030e+00	1.032349e+00	1.022707e+00	1.010239e+00	1.001666e+00	9.982331e-01	9.972447e-01	9.969870e-01	9.969069e-01	9.968603e-01	9.968036e-01	9.967116e-01	9.965716e-01	9.963865e-01	9.961652e-01	9.959118e-01	9.956243e-01	9.952978e-01	9.949215e-01	9.944672e-01	9.938712e-01	9.930059e-01	9.916873e-01	9.897531e-01	9.872586e-01	9.845511e-01	9.821484e-01	9.806025e-01	9.801300e-01	9.802187e-01	9.814428e-01	9.847277e-01	9.901038e-01	9.973043e-01	1.005925e+00	1.015242e+00	1.024218e+00	1.031820e+00	1.036996e+00	1.038839e+00	1.038733e+00	1.035516e+00	1.026262e+00	1.013553e+00	1.004603e+00	1.001121e+00	1.000233e+00	1.000047e+00	1.000010e+00	1.000002e+00	1.000001e+00	1.000000e+00	1.000000e+00	1.000000e+00	1.000000e+00	1.000000e+00	1.000000e+00	1.000000e+00	1.000000e+00	1.000000e+00	1.000000e+00	1.000000e+00	1.000000e+00	1.000000e+00	1.000000e+00	1.000000e+00	9.946946e-01	9.946667e-01	9.946864e-01	9.946383e-01	9.945854e-01	9.945101e-01	9.944094e-01	9.942815e-01	9.941274e-01	9.939398e-01	9.937164e-01	9.934544e-01	9.931430e-01	9.927684e-01	9.922867e-01	9.915950e-01	9.905742e-01	9.891002e-01	9.871197e-01	9.847493e-01	9.822871e-01	9.802591e-01	9.792292e-01	9.790022e-01	9.792334e-01	9.807490e-01	9.842928e-01	9.898383e-01	9.968648e-01	1.005033e+00	1.013799e+00	1.022409e+00	1.029713e+00	1.033965e+00	1.035103e+00	1.034759e+00	1.031439e+00	1.022661e+00	1.011027e+00	1.002453e+00	9.985747e-01	9.973426e-01	9.970133e-01	9.969127e-01	9.968594e-01	9.968003e-01	9.967083e-01	9.965700e-01	9.963864e-01	9.961663e-01	9.959133e-01	9.956244e-01	9.952944e-01	9.949088e-01	9.944311e-01	9.937807e-01	9.928369e-01	9.914561e-01	9.895436e-01	9.871658e-01	9.846030e-01	9.823818e-01	9.811244e-01	9.807658e-01	9.808871e-01	9.821074e-01	9.853266e-01	9.906879e-01	9.976765e-01	1.005943e+00	1.014925e+00	1.023836e+00	1.031531e+00	1.036268e+00	1.037637e+00	1.037429e+00	1.034509e+00	1.026147e+00	1.014416e+00	1.005402e+00	1.001420e+00	1.000289e+00	1.000050e+00	1.000008e+00	1.000002e+00	1.000000e+00	1.000000e+00	1.000000e+00	1.000000e+00	1.000000e+00	1.000000e+00	1.000000e+00	1.000000e+00	1.000000e+00	1.000000e+00	1.000000e+00	1.000000e+00	1.000000e+00	1.000000e+00	1.000000e+00	1.000000e+00	9.946495e-01	9.946209e-01	9.946383e-01	9.945903e-01	9.945356e-01	9.944582e-01	9.943555e-01	9.942238e-01	9.940646e-01	9.938717e-01	9.936433e-01	9.933766e-01	9.930553e-01	9.926524e-01	9.921114e-01	9.913202e-01	9.901695e-01	9.885930e-01	9.865988e-01	9.843111e-01	9.820710e-01	9.804865e-01	9.797970e-01	9.796674e-01	9.800420e-01	9.817858e-01	9.854517e-01	9.909169e-01	9.977367e-01	1.005551e+00	1.014061e+00	1.022639e+00	1.029616e+00	1.033085e+00	1.033797e+00	1.033293e+00	1.029863e+00	1.021756e+00	1.011422e+00	1.003329e+00	9.991186e-01	9.975359e-01	9.970452e-01	9.968940e-01	9.968226e-01	9.967541e-01	9.966574e-01	9.965174e-01	9.963329e-01	9.961103e-01	9.958535e-01	9.955604e-01	9.952202e-01	9.948117e-01	9.942863e-01	9.935477e-01	9.924757e-01	9.909674e-01	9.890090e-01	9.866927e-01	9.843497e-01	9.825536e-01	9.816546e-01	9.814537e-01	9.816986e-01	9.831448e-01	9.865198e-01	9.918289e-01	9.986398e-01	1.006521e+00	1.015196e+00	1.024066e+00	1.031519e+00	1.035438e+00	1.036337e+00	1.035959e+00	1.032910e+00	1.025207e+00	1.014823e+00	1.006365e+00	1.001975e+00	1.000453e+00	1.000082e+00	1.000013e+00	1.000002e+00	1.000000e+00	1.000000e+00	1.000000e+00	1.000000e+00	1.000000e+00	1.000000e+00	1.000000e+00	1.000000e+00	1.000000e+00	1.000000e+00	1.000000e+00	1.000000e+00	1.000000e+00	1.000000e+00	1.000000e+00	1.000000e+00	9.946017e-01	9.945704e-01	9.945854e-01	9.945356e-01	9.944771e-01	9.943950e-01	9.942870e-01	9.941475e-01	9.939789e-01	9.937785e-01	9.935430e-01	9.932660e-01	9.929260e-01	9.924718e-01	9.918285e-01	9.909010e-01	9.896003e-01	9.879035e-01	9.859016e-01	9.837933e-01	9.820243e-01	9.809974e-01	9.805804e-01	9.805667e-01	9.811453e-01	9.831455e-01	9.869846e-01	9.923800e-01	9.988880e-01	1.006273e+00	1.014519e+00	1.022824e+00	1.029014e+00	1.031735e+00	1.032096e+00	1.031424e+00	1.027824e+00	1.020485e+00	1.011716e+00	1.004470e+00	9.999833e-01	9.978808e-01	9.971265e-01	9.968824e-01	9.967788e-01	9.966960e-01	9.965928e-01	9.964506e-01	9.962650e-01	9.960389e-01	9.957762e-01	9.954754e-01	9.951193e-01	9.946711e-01	9.940574e-01	9.931913e-01	9.919586e-01	9.903057e-01	9.882873e-01	9.861234e-01	9.842169e-01	9.829750e-01	9.824224e-01	9.823796e-01	9.828019e-01	9.845173e-01	9.881073e-01	9.933998e-01	9.999017e-01	1.007322e+00	1.015679e+00	1.024302e+00	1.031028e+00	1.034156e+00	1.034644e+00	1.034104e+00	1.030869e+00	1.023870e+00	1.015101e+00	1.007587e+00	1.002872e+00	1.000780e+00	1.000155e+00	1.000025e+00	1.000004e+00	1.000001e+00	1.000000e+00	1.000000e+00	1.000000e+00	1.000000e+00	1.000000e+00	1.000000e+00	1.000000e+00	1.000000e+00	1.000000e+00	1.000000e+00	1.000000e+00	1.000000e+00	1.000000e+00	1.000000e+00	1.000000e+00	9.945320e-01	9.944979e-01	9.945101e-01	9.944582e-01	9.943950e-01	9.943067e-01	9.941923e-01	9.940445e-01	9.938664e-01	9.936581e-01	9.934135e-01	9.931194e-01	9.927388e-01	9.922037e-01	9.914197e-01	9.902974e-01	9.888115e-01	9.870189e-01	9.850865e-01	9.833546e-01	9.822118e-01	9.816461e-01	9.815383e-01	9.816867e-01	9.825791e-01	9.849134e-01	9.888861e-01	9.941390e-01	1.000284e+00	1.007287e+00	1.015147e+00	1.022820e+00	1.028066e+00	1.029959e+00	1.030105e+00	1.029138e+00	1.025419e+00	1.018999e+00	1.011920e+00	1.005718e+00	1.001087e+00	9.983917e-01	9.972572e-01	9.968720e-01	9.967207e-01	9.966190e-01	9.965076e-01	9.963616e-01	9.961726e-01	9.959421e-01	9.956725e-01	9.953566e-01	9.949718e-01	9.944523e-01	9.937168e-01	9.926542e-01	9.912056e-01	9.894038e-01	9.874240e-01	9.856044e-01	9.842855e-01	9.835471e-01	9.833928e-01	9.834986e-01	9.842167e-01	9.862989e-01	9.900872e-01	9.952841e-01	1.001435e+00	1.008434e+00	1.016368e+00	1.024383e+00	1.030139e+00	1.032428e+00	1.032648e+00	1.031866e+00	1.028467e+00	1.022291e+00	1.015251e+00	1.008900e+00	1.004047e+00	1.001294e+00	1.000285e+00	1.000047e+00	1.000007e+00	1.000001e+00	1.000000e+00	1.000000e+00	1.000000e+00	1.000000e+00	1.000000e+00	1.000000e+00	1.000000e+00	1.000000e+00	1.000000e+00	1.000000e+00	1.000000e+00	1.000000e+00	1.000000e+00	1.000000e+00	1.000000e+00	9.944354e-01	9.944002e-01	9.944094e-01	9.943555e-01	9.942870e-01	9.941923e-01	9.940713e-01	9.939159e-01	9.937299e-01	9.935121e-01	9.932523e-01	9.929243e-01	9.924719e-01	9.918123e-01	9.908418e-01	9.894991e-01	9.878202e-01	9.859853e-01	9.843111e-01	9.831557e-01	9.826288e-01	9.825119e-01	9.826044e-01	9.830614e-01	9.843978e-01	9.870729e-01	9.910980e-01	9.961337e-01	1.001933e+00	1.008547e+00	1.015776e+00	1.022409e+00	1.026626e+00	1.027805e+00	1.027772e+00	1.026495e+00	1.022803e+00	1.017476e+00	1.012076e+00	1.006971e+00	1.002344e+00	9.990514e-01	9.974467e-01	9.968679e-01	9.966526e-01	9.965272e-01	9.964059e-01	9.962548e-01	9.960606e-01	9.958239e-01	9.955439e-01	9.952035e-01	9.947595e-01	9.941358e-01	9.932162e-01	9.919123e-01	9.902257e-01	9.883368e-01	9.865868e-01	9.853012e-01	9.845999e-01	9.843922e-01	9.844763e-01	9.848368e-01	9.859943e-01	9.884825e-01	9.924094e-01	9.974317e-01	1.003240e+00	1.009836e+00	1.017107e+00	1.024069e+00	1.028808e+00	1.030303e+00	1.030342e+00	1.029274e+00	1.025866e+00	1.020696e+00	1.015346e+00	1.010193e+00	1.005397e+00	1.001991e+00	1.000486e+00	1.000085e+00	1.000012e+00	1.000002e+00	1.000000e+00	1.000000e+00	1.000000e+00	1.000000e+00	1.000000e+00	1.000000e+00	1.000000e+00	1.000000e+00	1.000000e+00	1.000000e+00	1.000000e+00	1.000000e+00	1.000000e+00	1.000000e+00	1.000000e+00	9.943130e-01	9.942760e-01	9.942815e-01	9.942238e-01	9.941475e-01	9.940445e-01	9.939159e-01	9.937543e-01	9.935603e-01	9.933304e-01	9.930443e-01	9.926533e-01	9.920905e-01	9.912501e-01	9.900438e-01	9.884560e-01	9.866425e-01	9.849454e-01	9.837970e-01	9.833492e-01	9.832793e-01	9.834359e-01	9.838579e-01	9.847867e-01	9.866119e-01	9.895751e-01	9.935633e-01	9.983357e-01	1.003807e+00	1.009917e+00	1.016227e+00	1.021588e+00	1.024620e+00	1.025303e+00	1.025080e+00	1.023568e+00	1.020177e+00	1.016114e+00	1.012251e+00	1.008157e+00	1.003652e+00	9.998220e-01	9.976920e-01	9.968688e-01	9.965694e-01	9.964128e-01	9.962774e-01	9.961198e-01	9.959216e-01	9.956771e-01	9.953785e-01	9.949961e-01	9.944582e-01	9.936600e-01	9.924861e-01	9.908901e-01	9.890255e-01	9.872600e-01	9.859930e-01	9.853927e-01	9.852037e-01	9.853434e-01	9.856940e-01	9.864994e-01	9.881686e-01	9.910265e-01	9.950040e-01	9.998050e-01	1.005280e+00	1.011376e+00	1.017723e+00	1.023330e+00	1.026876e+00	1.027829e+00	1.027689e+00	1.026408e+00	1.023245e+00	1.019263e+00	1.015452e+00	1.011401e+00	1.006810e+00	1.002836e+00	1.000765e+00	1.000143e+00	1.000022e+00	1.000003e+00	1.000000e+00	1.000000e+00	1.000000e+00	1.000000e+00	1.000000e+00	1.000000e+00	1.000000e+00	1.000000e+00	1.000000e+00	1.000000e+00	1.000000e+00	1.000000e+00	1.000000e+00	1.000000e+00	1.000000e+00	9.941666e-01	9.941253e-01	9.941274e-01	9.940646e-01	9.939789e-01	9.938664e-01	9.937299e-01	9.935603e-01	9.933525e-01	9.930986e-01	9.927539e-01	9.922606e-01	9.915276e-01	9.904491e-01	9.889602e-01	9.871618e-01	9.854004e-01	9.842000e-01	9.837999e-01	9.837793e-01	9.840201e-01	9.845427e-01	9.854288e-01	9.868991e-01	9.891923e-01	9.923534e-01	9.962368e-01	1.000723e+00	1.005802e+00	1.011220e+00	1.016263e+00	1.020164e+00	1.022087e+00	1.022429e+00	1.022054e+00	1.020505e+00	1.017775e+00	1.015033e+00	1.012458e+00	1.009231e+00	1.004917e+00	1.000649e+00	9.979882e-01	9.968836e-01	9.964790e-01	9.962820e-01	9.961269e-01	9.959583e-01	9.957527e-01	9.954937e-01	9.951569e-01	9.946880e-01	9.939908e-01	9.929348e-01	9.914289e-01	9.895748e-01	9.877531e-01	9.864638e-01	9.859137e-01	9.857774e-01	9.859671e-01	9.864256e-01	9.872118e-01	9.885438e-01	9.907280e-01	9.938762e-01	9.978247e-01	1.002375e+00	1.007461e+00	1.012870e+00	1.017987e+00	1.022085e+00	1.024391e+00	1.024981e+00	1.024710e+00	1.023398e+00	1.020833e+00	1.018123e+00	1.015615e+00	1.012492e+00	1.008185e+00	1.003772e+00	1.001119e+00	1.000224e+00	1.000035e+00	1.000005e+00	1.000001e+00	1.000000e+00	1.000000e+00	1.000000e+00	1.000000e+00	1.000000e+00	1.000000e+00	1.000000e+00	1.000000e+00	1.000000e+00	1.000000e+00	1.000000e+00	1.000000e+00	1.000000e+00	1.000000e+00	9.939879e-01	9.939413e-01	9.939398e-01	9.938717e-01	9.937785e-01	9.936581e-01	9.935121e-01	9.933304e-01	9.930986e-01	9.927878e-01	9.923491e-01	9.916922e-01	9.907192e-01	9.893310e-01	9.875631e-01	9.857332e-01	9.844619e-01	9.840656e-01	9.840739e-01	9.843224e-01	9.849496e-01	9.859415e-01	9.873747e-01	9.894005e-01	9.920928e-01	9.953527e-01	9.990743e-01	1.003249e+00	1.007774e+00	1.012205e+00	1.015809e+00	1.018087e+00	1.019026e+00	1.019151e+00	1.018773e+00	1.017576e+00	1.015810e+00	1.014281e+00	1.012698e+00	1.010149e+00	1.006061e+00	1.001466e+00	9.983142e-01	9.969073e-01	9.963785e-01	9.961325e-01	9.959550e-01	9.957723e-01	9.955517e-01	9.952623e-01	9.948512e-01	9.942303e-01	9.932685e-01	9.918446e-01	9.900055e-01	9.881248e-01	9.867949e-01	9.862599e-01	9.861553e-01	9.863352e-01	9.868805e-01	9.877881e-01	9.890960e-01	9.909940e-01	9.936431e-01	9.969856e-01	1.000842e+00	1.005099e+00	1.009621e+00	1.014046e+00	1.017706e+00	1.020212e+00	1.021386e+00	1.021716e+00	1.021472e+00	1.020493e+00	1.018843e+00	1.017353e+00	1.015838e+00	1.013444e+00	1.009449e+00	1.004733e+00	1.001534e+00	1.000332e+00	1.000055e+00	1.000008e+00	1.000001e+00	1.000000e+00	1.000000e+00	1.000000e+00	1.000000e+00	1.000000e+00	1.000000e+00	1.000000e+00	1.000000e+00	1.000000e+00	1.000000e+00	1.000000e+00	1.000000e+00	1.000000e+00	1.000000e+00	9.937732e-01	9.937208e-01	9.937164e-01	9.936433e-01	9.935430e-01	9.934135e-01	9.932523e-01	9.930443e-01	9.927539e-01	9.923491e-01	9.917475e-01	9.908560e-01	9.895617e-01	9.878407e-01	9.859698e-01	9.846465e-01	9.842327e-01	9.842479e-01	9.844664e-01	9.850940e-01	9.861911e-01	9.877252e-01	9.897314e-01	9.922536e-01	9.952256e-01	9.984962e-01	1.002011e+00	1.005795e+00	1.009521e+00	1.012516e+00	1.014611e+00	1.015389e+00	1.015515e+00	1.015515e+00	1.015424e+00	1.015036e+00	1.014407e+00	1.013837e+00	1.012938e+00	1.010906e+00	1.007026e+00	1.002221e+00	9.986492e-01	9.969382e-01	9.962685e-01	9.959625e-01	9.957553e-01	9.955514e-01	9.952963e-01	9.949338e-01	9.943775e-01	9.934931e-01	9.921394e-01	9.903226e-01	9.884126e-01	9.870652e-01	9.865247e-01	9.864274e-01	9.865629e-01	9.870867e-01	9.880851e-01	9.895096e-01	9.913915e-01	9.938340e-01	9.968502e-01	1.000291e+00	1.003992e+00	1.007854e+00	1.011564e+00	1.014586e+00	1.016773e+00	1.017730e+00	1.017978e+00	1.018035e+00	1.018163e+00	1.017928e+00	1.017415e+00	1.016903e+00	1.016097e+00	1.014260e+00	1.010546e+00	1.005663e+00	1.001993e+00	1.000466e+00	1.000082e+00	1.000012e+00	1.000002e+00	1.000000e+00	1.000000e+00	1.000000e+00	1.000000e+00	1.000000e+00	1.000000e+00	1.000000e+00	1.000000e+00	1.000000e+00	1.000000e+00	1.000000e+00	1.000000e+00	1.000000e+00	1.000000e+00	9.935191e-01	9.934601e-01	9.934544e-01	9.933766e-01	9.932660e-01	9.931194e-01	9.929243e-01	9.926533e-01	9.922606e-01	9.916922e-01	9.908560e-01	9.896403e-01	9.879859e-01	9.861127e-01	9.847691e-01	9.843472e-01	9.843619e-01	9.845442e-01	9.851047e-01	9.862090e-01	9.878457e-01	9.899536e-01	9.925040e-01	9.954123e-01	9.985263e-01	1.001747e+00	1.005039e+00	1.008187e+00	1.010654e+00	1.012168e+00	1.012402e+00	1.012094e+00	1.011762e+00	1.011643e+00	1.012154e+00	1.013201e+00	1.013606e+00	1.013573e+00	1.013141e+00	1.011467e+00	1.007779e+00	1.002875e+00	9.989726e-01	9.969712e-01	9.961478e-01	9.957687e-01	9.955155e-01	9.952644e-01	9.949330e-01	9.944242e-01	9.935985e-01	9.923020e-01	9.905192e-01	9.886163e-01	9.872861e-01	9.867533e-01	9.866485e-01	9.867470e-01	9.871870e-01	9.881640e-01	9.896775e-01	9.916680e-01	9.941291e-01	9.970404e-01	1.000295e+00	1.003751e+00	1.007242e+00	1.010458e+00	1.012938e+00	1.014438e+00	1.014837e+00	1.014605e+00	1.014314e+00	1.014208e+00	1.014814e+00	1.016073e+00	1.016704e+00	1.016685e+00	1.016352e+00	1.014907e+00	1.011453e+00	1.006518e+00	1.002475e+00	1.000625e+00	1.000116e+00	1.000018e+00	1.000003e+00	1.000000e+00	1.000000e+00	1.000000e+00	1.000000e+00	1.000000e+00	1.000000e+00	1.000000e+00	1.000000e+00	1.000000e+00	1.000000e+00	1.000000e+00	1.000000e+00	1.000000e+00	1.000000e+00	9.932197e-01	9.931532e-01	9.931430e-01	9.930553e-01	9.929260e-01	9.927388e-01	9.924719e-01	9.920905e-01	9.915276e-01	9.907192e-01	9.895617e-01	9.879859e-01	9.861586e-01	9.848243e-01	9.844168e-01	9.844426e-01	9.845969e-01	9.850815e-01	9.861193e-01	9.877677e-01	9.899662e-01	9.926301e-01	9.956367e-01	9.988094e-01	1.002017e+00	1.005176e+00	1.007993e+00	1.009900e+00	1.010682e+00	1.010664e+00	1.009596e+00	1.008288e+00	1.007775e+00	1.007872e+00	1.009489e+00	1.012029e+00	1.013350e+00	1.013505e+00	1.013282e+00	1.011833e+00	1.008316e+00	1.003405e+00	9.992624e-01	9.969937e-01	9.960042e-01	9.955307e-01	9.952039e-01	9.948566e-01	9.943637e-01	9.935722e-01	9.923191e-01	9.905870e-01	9.887419e-01	9.874692e-01	9.869564e-01	9.868458e-01	9.869180e-01	9.872711e-01	9.881541e-01	9.896570e-01	9.917238e-01	9.942903e-01	9.972819e-01	1.000566e+00	1.003997e+00	1.007417e+00	1.010445e+00	1.012431e+00	1.013174e+00	1.013232e+00	1.012261e+00	1.010956e+00	1.010400e+00	1.010459e+00	1.012080e+00	1.014889e+00	1.016465e+00	1.016712e+00	1.016579e+00	1.015384e+00	1.012165e+00	1.007275e+00	1.002960e+00	1.000803e+00	1.000158e+00	1.000026e+00	1.000004e+00	1.000001e+00	1.000000e+00	1.000000e+00	1.000000e+00	1.000000e+00	1.000000e+00	1.000000e+00	1.000000e+00	1.000000e+00	1.000000e+00	1.000000e+00	1.000000e+00	1.000000e+00	1.000000e+00	9.928659e-01	9.927911e-01	9.927684e-01	9.926524e-01	9.924718e-01	9.922037e-01	9.918123e-01	9.912501e-01	9.904491e-01	9.893310e-01	9.878407e-01	9.861127e-01	9.848243e-01	9.844394e-01	9.844913e-01	9.846351e-01	9.850704e-01	9.860255e-01	9.876163e-01	9.898192e-01	9.925567e-01	9.957072e-01	9.990811e-01	1.002493e+00	1.005763e+00	1.008496e+00	1.010036e+00	1.010279e+00	1.010035e+00	1.008364e+00	1.005813e+00	1.004233e+00	1.003807e+00	1.004577e+00	1.007726e+00	1.011523e+00	1.013232e+00	1.013529e+00	1.013361e+00	1.012021e+00	1.008657e+00	1.003793e+00	9.994916e-01	9.969826e-01	9.958101e-01	9.952044e-01	9.947436e-01	9.942063e-01	9.934077e-01	9.921757e-01	9.905089e-01	9.887827e-01	9.876220e-01	9.871478e-01	9.870311e-01	9.870855e-01	9.873765e-01	9.881532e-01	9.895762e-01	9.916351e-01	9.942636e-01	9.973785e-01	1.000840e+00	1.004458e+00	1.008006e+00	1.011031e+00	1.012738e+00	1.013044e+00	1.012804e+00	1.011254e+00	1.008707e+00	1.006978e+00	1.006489e+00	1.007108e+00	1.010242e+00	1.014412e+00	1.016431e+00	1.016830e+00	1.016762e+00	1.015709e+00	1.012708e+00	1.007927e+00	1.003431e+00	1.000993e+00	1.000205e+00	1.000034e+00	1.000005e+00	1.000001e+00	1.000000e+00	1.000000e+00	1.000000e+00	1.000000e+00	1.000000e+00	1.000000e+00	1.000000e+00	1.000000e+00	1.000000e+00	1.000000e+00	1.000000e+00	1.000000e+00	1.000000e+00	9.924247e-01	9.923372e-01	9.922867e-01	9.921114e-01	9.918285e-01	9.914197e-01	9.908418e-01	9.900438e-01	9.889602e-01	9.875631e-01	9.859698e-01	9.847691e-01	9.844168e-01	9.844913e-01	9.846506e-01	9.850713e-01	9.859716e-01	9.874910e-01	9.896376e-01	9.923631e-01	9.955906e-01	9.991812e-01	1.002923e+00	1.006500e+00	1.009326e+00	1.010679e+00	1.010805e+00	1.010224e+00	1.008236e+00	1.004732e+00	1.001567e+00	1.000335e+00	1.000212e+00	1.002159e+00	1.006872e+00	1.011304e+00	1.013121e+00	1.013410e+00	1.013262e+00	1.012010e+00	1.008792e+00	1.004027e+00	9.996273e-01	9.968849e-01	9.954914e-01	9.946902e-01	9.939910e-01	9.931160e-01	9.918726e-01	9.902836e-01	9.887306e-01	9.877323e-01	9.873267e-01	9.872098e-01	9.872553e-01	9.875084e-01	9.882019e-01	9.895293e-01	9.915211e-01	9.941313e-01	9.973126e-01	1.000968e+00	1.004898e+00	1.008759e+00	1.011902e+00	1.013514e+00	1.013737e+00	1.013172e+00	1.011381e+00	1.007960e+00	1.004565e+00	1.003112e+00	1.002873e+00	1.004591e+00	1.009438e+00	1.014300e+00	1.016515e+00	1.016935e+00	1.016884e+00	1.015925e+00	1.013115e+00	1.008481e+00	1.003870e+00	1.001186e+00	1.000257e+00	1.000044e+00	1.000007e+00	1.000001e+00	1.000000e+00	1.000000e+00	1.000000e+00	1.000000e+00	1.000000e+00	1.000000e+00	1.000000e+00	1.000000e+00	1.000000e+00	1.000000e+00	1.000000e+00	1.000000e+00	1.000000e+00	9.918222e-01	9.917060e-01	9.915950e-01	9.913202e-01	9.909010e-01	9.902974e-01	9.894991e-01	9.884560e-01	9.871618e-01	9.857332e-01	9.846465e-01	9.843472e-01	9.844426e-01	9.846351e-01	9.850713e-01	9.859558e-01	9.874275e-01	9.895065e-01	9.921604