# vtk DataFile Version 3.0
vtk output
ASCII
DATASET STRUCTURED_GRID
DIMENSIONS 101 101 1
POINTS 10201 double
0.000000e+00	0.000000e+00	0.0	1.000000e-02	0.000000e+00	0.0	2.000000e-02	0.000000e+00	0.0	3.000000e-02	0.000000e+00	0.0	4.000000e-02	0.000000e+00	0.0	5.000000e-02	0.000000e+00	0.0	6.000000e-02	0.000000e+00	0.0	7.000000e-02	0.000000e+00	0.0	8.000000e-02	0.000000e+00	0.0	9.000000e-02	0.000000e+00	0.0	1.000000e-01	0.000000e+00	0.0	1.100000e-01	0.000000e+00	0.0	1.200000e-01	0.000000e+00	0.0	1.300000e-01	0.000000e+00	0.0	1.400000e-01	0.000000e+00	0.0	1.500000e-01	0.000000e+00	0.0	1.600000e-01	0.000000e+00	0.0	1.700000e-01	0.000000e+00	0.0	1.800000e-01	0.000000e+00	0.0	1.900000e-01	0.000000e+00	0.0	2.000000e-01	0.000000e+00	0.0	2.100000e-01	0.000000e+00	0.0	2.200000e-01	0.000000e+00	0.0	2.300000e-01	0.000000e+00	0.0	2.400000e-01	0.000000e+00	0.0	2.500000e-01	0.000000e+00	0.0	2.600000e-01	0.000000e+00	0.0	2.700000e-01	0.000000e+00	0.0	2.800000e-01	0.000000e+00	0.0	2.900000e-01	0.000000e+00	0.0	3.000000e-01	0.000000e+00	0.0	3.100000e-01	0.000000e+00	0.0	3.200000e-01	0.000000e+00	0.0	3.300000e-01	0.000000e+00	0.0	3.400000e-01	0.000000e+00	0.0	3.500000e-01	0.000000e+00	0.0	3.600000e-01	0.000000e+00	0.0	3.700000e-01	0.000000e+00	0.0	3.800000e-01	0.000000e+00	0.0	3.900000e-01	0.000000e+00	0.0	4.000000e-01	0.000000e+00	0.0	4.100000e-01	0.000000e+00	0.0	4.200000e-01	0.000000e+00	0.0	4.300000e-01	0.000000e+00	0.0	4.400000e-01	0.000000e+00	0.0	4.500000e-01	0.000000e+00	0.0	4.600000e-01	0.000000e+00	0.0	4.700000e-01	0.000000e+00	0.0	4.800000e-01	0.000000e+00	0.0	4.900000e-01	0.000000e+00	0.0	5.000000e-01	0.000000e+00	0.0	5.100000e-01	0.000000e+00	0.0	5.200000e-01	0.000000e+00	0.0	5.300000e-01	0.000000e+00	0.0	5.400000e-01	0.000000e+00	0.0	5.500000e-01	0.000000e+00	0.0	5.600000e-01	0.000000e+00	0.0	5.700000e-01	0.000000e+00	0.0	5.800000e-01	0.000000e+00	0.0	5.900000e-01	0.000000e+00	0.0	6.000000e-01	0.000000e+00	0.0	6.100000e-01	0.000000e+00	0.0	6.200000e-01	0.000000e+00	0.0	6.300000e-01	0.000000e+00	0.0	6.400000e-01	0.000000e+00	0.0	6.500000e-01	0.000000e+00	0.0	6.600000e-01	0.000000e+00	0.0	6.700000e-01	0.000000e+00	0.0	6.800000e-01	0.000000e+00	0.0	6.900000e-01	0.000000e+00	0.0	7.000000e-01	0.000000e+00	0.0	7.100000e-01	0.000000e+00	0.0	7.200000e-01	0.000000e+00	0.0	7.300000e-01	0.000000e+00	0.0	7.400000e-01	0.000000e+00	0.0	7.500000e-01	0.000000e+00	0.0	7.600000e-01	0.000000e+00	0.0	7.700000e-01	0.000000e+00	0.0	7.800000e-01	0.000000e+00	0.0	7.900000e-01	0.000000e+00	0.0	8.000000e-01	0.000000e+00	0.0	8.100000e-01	0.000000e+00	0.0	8.200000e-01	0.000000e+00	0.0	8.300000e-01	0.000000e+00	0.0	8.400000e-01	0.000000e+00	0.0	8.500000e-01	0.000000e+00	0.0	8.600000e-01	0.000000e+00	0.0	8.700000e-01	0.000000e+00	0.0	8.800000e-01	0.000000e+00	0.0	8.900000e-01	0.000000e+00	0.0	9.000000e-01	0.000000e+00	0.0	9.100000e-01	0.000000e+00	0.0	9.200000e-01	0.000000e+00	0.0	9.300000e-01	0.000000e+00	0.0	9.400000e-01	0.000000e+00	0.0	9.500000e-01	0.000000e+00	0.0	9.600000e-01	0.000000e+00	0.0	9.700000e-01	0.000000e+00	0.0	9.800000e-01	0.000000e+00	0.0	9.900000e-01	0.000000e+00	0.0	1.000000e+00	0.000000e+00	0.0	0.000000e+00	1.000000e-02	0.0	1.000000e-02	1.000000e-02	0.0	2.000000e-02	1.000000e-02	0.0	3.000000e-02	1.000000e-02	0.0	4.000000e-02	1.000000e-02	0.0	5.000000e-02	1.000000e-02	0.0	6.000000e-02	1.000000e-02	0.0	7.000000e-02	1.000000e-02	0.0	8.000000e-02	1.000000e-02	0.0	9.000000e-02	1.000000e-02	0.0	1.000000e-01	1.000000e-02	0.0	1.100000e-01	1.000000e-02	0.0	1.200000e-01	1.000000e-02	0.0	1.300000e-01	1.000000e-02	0.0	1.400000e-01	1.000000e-02	0.0	1.500000e-01	1.000000e-02	0.0	1.600000e-01	1.000000e-02	0.0	1.700000e-01	1.000000e-02	0.0	1.800000e-01	1.000000e-02	0.0	1.900000e-01	1.000000e-02	0.0	2.000000e-01	1.000000e-02	0.0	2.100000e-01	1.000000e-02	0.0	2.200000e-01	1.000000e-02	0.0	2.300000e-01	1.000000e-02	0.0	2.400000e-01	1.000000e-02	0.0	2.500000e-01	1.000000e-02	0.0	2.600000e-01	1.000000e-02	0.0	2.700000e-01	1.000000e-02	0.0	2.800000e-01	1.000000e-02	0.0	2.900000e-01	1.000000e-02	0.0	3.000000e-01	1.000000e-02	0.0	3.100000e-01	1.000000e-02	0.0	3.200000e-01	1.000000e-02	0.0	3.300000e-01	1.000000e-02	0.0	3.400000e-01	1.000000e-02	0.0	3.500000e-01	1.000000e-02	0.0	3.600000e-01	1.000000e-02	0.0	3.700000e-01	1.000000e-02	0.0	3.800000e-01	1.000000e-02	0.0	3.900000e-01	1.000000e-02	0.0	4.000000e-01	1.000000e-02	0.0	4.100000e-01	1.000000e-02	0.0	4.200000e-01	1.000000e-02	0.0	4.300000e-01	1.000000e-02	0.0	4.400000e-01	1.000000e-02	0.0	4.500000e-01	1.000000e-02	0.0	4.600000e-01	1.000000e-02	0.0	4.700000e-01	1.000000e-02	0.0	4.800000e-01	1.000000e-02	0.0	4.900000e-01	1.000000e-02	0.0	5.000000e-01	1.000000e-02	0.0	5.100000e-01	1.000000e-02	0.0	5.200000e-01	1.000000e-02	0.0	5.300000e-01	1.000000e-02	0.0	5.400000e-01	1.000000e-02	0.0	5.500000e-01	1.000000e-02	0.0	5.600000e-01	1.000000e-02	0.0	5.700000e-01	1.000000e-02	0.0	5.800000e-01	1.000000e-02	0.0	5.900000e-01	1.000000e-02	0.0	6.000000e-01	1.000000e-02	0.0	6.100000e-01	1.000000e-02	0.0	6.200000e-01	1.000000e-02	0.0	6.300000e-01	1.000000e-02	0.0	6.400000e-01	1.000000e-02	0.0	6.500000e-01	1.000000e-02	0.0	6.600000e-01	1.000000e-02	0.0	6.700000e-01	1.000000e-02	0.0	6.800000e-01	1.000000e-02	0.0	6.900000e-01	1.000000e-02	0.0	7.000000e-01	1.000000e-02	0.0	7.100000e-01	1.000000e-02	0.0	7.200000e-01	1.000000e-02	0.0	7.300000e-01	1.000000e-02	0.0	7.400000e-01	1.000000e-02	0.0	7.500000e-01	1.000000e-02	0.0	7.600000e-01	1.000000e-02	0.0	7.700000e-01	1.000000e-02	0.0	7.800000e-01	1.000000e-02	0.0	7.900000e-01	1.000000e-02	0.0	8.000000e-01	1.000000e-02	0.0	8.100000e-01	1.000000e-02	0.0	8.200000e-01	1.000000e-02	0.0	8.300000e-01	1.000000e-02	0.0	8.400000e-01	1.000000e-02	0.0	8.500000e-01	1.000000e-02	0.0	8.600000e-01	1.000000e-02	0.0	8.700000e-01	1.000000e-02	0.0	8.800000e-01	1.000000e-02	0.0	8.900000e-01	1.000000e-02	0.0	9.000000e-01	1.000000e-02	0.0	9.100000e-01	1.000000e-02	0.0	9.200000e-01	1.000000e-02	0.0	9.300000e-01	1.000000e-02	0.0	9.400000e-01	1.000000e-02	0.0	9.500000e-01	1.000000e-02	0.0	9.600000e-01	1.000000e-02	0.0	9.700000e-01	1.000000e-02	0.0	9.800000e-01	1.000000e-02	0.0	9.900000e-01	1.000000e-02	0.0	1.000000e+00	1.000000e-02	0.0	0.000000e+00	2.000000e-02	0.0	1.000000e-02	2.000000e-02	0.0	2.000000e-02	2.000000e-02	0.0	3.000000e-02	2.000000e-02	0.0	4.000000e-02	2.000000e-02	0.0	5.000000e-02	2.000000e-02	0.0	6.000000e-02	2.000000e-02	0.0	7.000000e-02	2.000000e-02	0.0	8.000000e-02	2.000000e-02	0.0	9.000000e-02	2.000000e-02	0.0	1.000000e-01	2.000000e-02	0.0	1.100000e-01	2.000000e-02	0.0	1.200000e-01	2.000000e-02	0.0	1.300000e-01	2.000000e-02	0.0	1.400000e-01	2.000000e-02	0.0	1.500000e-01	2.000000e-02	0.0	1.600000e-01	2.000000e-02	0.0	1.700000e-01	2.000000e-02	0.0	1.800000e-01	2.000000e-02	0.0	1.900000e-01	2.000000e-02	0.0	2.000000e-01	2.000000e-02	0.0	2.100000e-01	2.000000e-02	0.0	2.200000e-01	2.000000e-02	0.0	2.300000e-01	2.000000e-02	0.0	2.400000e-01	2.000000e-02	0.0	2.500000e-01	2.000000e-02	0.0	2.600000e-01	2.000000e-02	0.0	2.700000e-01	2.000000e-02	0.0	2.800000e-01	2.000000e-02	0.0	2.900000e-01	2.000000e-02	0.0	3.000000e-01	2.000000e-02	0.0	3.100000e-01	2.000000e-02	0.0	3.200000e-01	2.000000e-02	0.0	3.300000e-01	2.000000e-02	0.0	3.400000e-01	2.000000e-02	0.0	3.500000e-01	2.000000e-02	0.0	3.600000e-01	2.000000e-02	0.0	3.700000e-01	2.000000e-02	0.0	3.800000e-01	2.000000e-02	0.0	3.900000e-01	2.000000e-02	0.0	4.000000e-01	2.000000e-02	0.0	4.100000e-01	2.000000e-02	0.0	4.200000e-01	2.000000e-02	0.0	4.300000e-01	2.000000e-02	0.0	4.400000e-01	2.000000e-02	0.0	4.500000e-01	2.000000e-02	0.0	4.600000e-01	2.000000e-02	0.0	4.700000e-01	2.000000e-02	0.0	4.800000e-01	2.000000e-02	0.0	4.900000e-01	2.000000e-02	0.0	5.000000e-01	2.000000e-02	0.0	5.100000e-01	2.000000e-02	0.0	5.200000e-01	2.000000e-02	0.0	5.300000e-01	2.000000e-02	0.0	5.400000e-01	2.000000e-02	0.0	5.500000e-01	2.000000e-02	0.0	5.600000e-01	2.000000e-02	0.0	5.700000e-01	2.000000e-02	0.0	5.800000e-01	2.000000e-02	0.0	5.900000e-01	2.000000e-02	0.0	6.000000e-01	2.000000e-02	0.0	6.100000e-01	2.000000e-02	0.0	6.200000e-01	2.000000e-02	0.0	6.300000e-01	2.000000e-02	0.0	6.400000e-01	2.000000e-02	0.0	6.500000e-01	2.000000e-02	0.0	6.600000e-01	2.000000e-02	0.0	6.700000e-01	2.000000e-02	0.0	6.800000e-01	2.000000e-02	0.0	6.900000e-01	2.000000e-02	0.0	7.000000e-01	2.000000e-02	0.0	7.100000e-01	2.000000e-02	0.0	7.200000e-01	2.000000e-02	0.0	7.300000e-01	2.000000e-02	0.0	7.400000e-01	2.000000e-02	0.0	7.500000e-01	2.000000e-02	0.0	7.600000e-01	2.000000e-02	0.0	7.700000e-01	2.000000e-02	0.0	7.800000e-01	2.000000e-02	0.0	7.900000e-01	2.000000e-02	0.0	8.000000e-01	2.000000e-02	0.0	8.100000e-01	2.000000e-02	0.0	8.200000e-01	2.000000e-02	0.0	8.300000e-01	2.000000e-02	0.0	8.400000e-01	2.000000e-02	0.0	8.500000e-01	2.000000e-02	0.0	8.600000e-01	2.000000e-02	0.0	8.700000e-01	2.000000e-02	0.0	8.800000e-01	2.000000e-02	0.0	8.900000e-01	2.000000e-02	0.0	9.000000e-01	2.000000e-02	0.0	9.100000e-01	2.000000e-02	0.0	9.200000e-01	2.000000e-02	0.0	9.300000e-01	2.000000e-02	0.0	9.400000e-01	2.000000e-02	0.0	9.500000e-01	2.000000e-02	0.0	9.600000e-01	2.000000e-02	0.0	9.700000e-01	2.000000e-02	0.0	9.800000e-01	2.000000e-02	0.0	9.900000e-01	2.000000e-02	0.0	1.000000e+00	2.000000e-02	0.0	0.000000e+00	3.000000e-02	0.0	1.000000e-02	3.000000e-02	0.0	2.000000e-02	3.000000e-02	0.0	3.000000e-02	3.000000e-02	0.0	4.000000e-02	3.000000e-02	0.0	5.000000e-02	3.000000e-02	0.0	6.000000e-02	3.000000e-02	0.0	7.000000e-02	3.000000e-02	0.0	8.000000e-02	3.000000e-02	0.0	9.000000e-02	3.000000e-02	0.0	1.000000e-01	3.000000e-02	0.0	1.100000e-01	3.000000e-02	0.0	1.200000e-01	3.000000e-02	0.0	1.300000e-01	3.000000e-02	0.0	1.400000e-01	3.000000e-02	0.0	1.500000e-01	3.000000e-02	0.0	1.600000e-01	3.000000e-02	0.0	1.700000e-01	3.000000e-02	0.0	1.800000e-01	3.000000e-02	0.0	1.900000e-01	3.000000e-02	0.0	2.000000e-01	3.000000e-02	0.0	2.100000e-01	3.000000e-02	0.0	2.200000e-01	3.000000e-02	0.0	2.300000e-01	3.000000e-02	0.0	2.400000e-01	3.000000e-02	0.0	2.500000e-01	3.000000e-02	0.0	2.600000e-01	3.000000
[...]
POINT_DATA 10201

SCALARS Height double 1
LOOKUP_TABLE default
9.994805e-01	9.994928e-01	9.994894e-01	9.994876e-01	9.994858e-01	9.994855e-01	9.994858e-01	9.994859e-01	9.994876e-01	9.994907e-01	9.994946e-01	9.994968e-01	9.994972e-01	9.994968e-01	9.994958e-01	9.994934e-01	9.994894e-01	9.994896e-01	9.994904e-01	9.994966e-01	9.994998e-01	9.994929e-01	9.994838e-01	9.994759e-01	9.994697e-01	9.994664e-01	9.994711e-01	9.994982e-01	9.995961e-01	9.999010e-01	1.000741e+00	1.002668e+00	1.006030e+00	1.010162e+00	1.013806e+00	1.015927e+00	1.016605e+00	1.016589e+00	1.016028e+00	1.014689e+00	1.012409e+00	1.009225e+00	1.005514e+00	1.001812e+00	9.984515e-01	9.956221e-01	9.934648e-01	9.920395e-01	9.912793e-01	9.909987e-01	9.909685e-01	9.910822e-01	9.914206e-01	9.920321e-01	9.929211e-01	9.939420e-01	9.948964e-01	9.956725e-01	9.962568e-01	9.966827e-01	9.969934e-01	9.972228e-01	9.973866e-01	9.974934e-01	9.975531e-01	9.975811e-01	9.975964e-01	9.976212e-01	9.976916e-01	9.979426e-01	9.986841e-01	1.000481e+00	1.003785e+00	1.008077e+00	1.012057e+00	1.014522e+00	1.015397e+00	1.015435e+00	1.014958e+00	1.013752e+00	1.011647e+00	1.008614e+00	1.004993e+00	1.001288e+00	9.978594e-01	9.949141e-01	9.926017e-01	9.910026e-01	9.900829e-01	9.896705e-01	9.895484e-01	9.895656e-01	9.897943e-01	9.902758e-01	9.910312e-01	9.919500e-01	9.928393e-01	9.935533e-01	9.940428e-01	9.942861e-01	9.944308e-01	9.995073e-01	9.995399e-01	9.995208e-01	9.995208e-01	9.995179e-01	9.995145e-01	9.995103e-01	9.995058e-01	9.995034e-01	9.995028e-01	9.995028e-01	9.995029e-01	9.995022e-01	9.995010e-01	9.994995e-01	9.994981e-01	9.994959e-01	9.995035e-01	9.995117e-01	9.995182e-01	9.995210e-01	9.995156e-01	9.995053e-01	9.994893e-01	9.994737e-01	9.994658e-01	9.994650e-01	9.994814e-01	9.995522e-01	9.998031e-01	1.000593e+00	1.002577e+00	1.006166e+00	1.010581e+00	1.014153e+00	1.016062e+00	1.016653e+00	1.016685e+00	1.016340e+00	1.015030e+00	1.012552e+00	1.009210e+00	1.005483e+00	1.001782e+00	9.984080e-01	9.955672e-01	9.934072e-01	9.920017e-01	9.912848e-01	9.910488e-01	9.910268e-01	9.910903e-01	9.913917e-01	9.920492e-01	9.929987e-01	9.940424e-01	9.949849e-01	9.957429e-01	9.963163e-01	9.967393e-01	9.970492e-01	9.972763e-01	9.974344e-01	9.975318e-01	9.975798e-01	9.975953e-01	9.975962e-01	9.976000e-01	9.976456e-01	9.978439e-01	9.985257e-01	1.000359e+00	1.003886e+00	1.008495e+00	1.012435e+00	1.014676e+00	1.015433e+00	1.015498e+00	1.015230e+00	1.014101e+00	1.011813e+00	1.008618e+00	1.004962e+00	1.001258e+00	9.978168e-01	9.948579e-01	9.925394e-01	9.909531e-01	9.900643e-01	9.897019e-01	9.895965e-01	9.895760e-01	9.897576e-01	9.902737e-01	9.910940e-01	9.920498e-01	9.929383e-01	9.936328e-01	9.941064e-01	9.943452e-01	9.944702e-01	9.995007e-01	9.995114e-01	9.995003e-01	9.995000e-01	9.994988e-01	9.994977e-01	9.994970e-01	9.994966e-01	9.994975e-01	9.994989e-01	9.994995e-01	9.994984e-01	9.994960e-01	9.994932e-01	9.994908e-01	9.994894e-01	9.994881e-01	9.994886e-01	9.994840e-01	9.994813e-01	9.994807e-01	9.994800e-01	9.994795e-01	9.994752e-01	9.994661e-01	9.994563e-01	9.994511e-01	9.994622e-01	9.995229e-01	9.997572e-01	1.000550e+00	1.002607e+00	1.006273e+00	1.010579e+00	1.013955e+00	1.015778e+00	1.016409e+00	1.016484e+00	1.016249e+00	1.014971e+00	1.012419e+00	1.009090e+00	1.005435e+00	1.001791e+00	9.984461e-01	9.956174e-01	9.934696e-01	9.920644e-01	9.913249e-01	9.910463e-01	9.909991e-01	9.910424e-01	9.913407e-01	9.920345e-01	9.929904e-01	9.940003e-01	9.949174e-01	9.956658e-01	9.962386e-01	9.966670e-01	9.969859e-01	9.972207e-01	9.973852e-01	9.974886e-01	9.975434e-01	9.975660e-01	9.975739e-01	9.975838e-01	9.976268e-01	9.978108e-01	9.984945e-01	1.000396e+00	1.004014e+00	1.008524e+00	1.012258e+00	1.014380e+00	1.015170e+00	1.015284e+00	1.015120e+00	1.014048e+00	1.011692e+00	1.008491e+00	1.004904e+00	1.001261e+00	9.978486e-01	9.949004e-01	9.925954e-01	9.910135e-01	9.901112e-01	9.897105e-01	9.895801e-01	9.895422e-01	9.897084e-01	9.902565e-01	9.910890e-01	9.920126e-01	9.928646e-01	9.935387e-01	9.940044e-01	9.942443e-01	9.943942e-01	9.995029e-01	9.995149e-01	9.995048e-01	9.995041e-01	9.995028e-01	9.995010e-01	9.995000e-01	9.994996e-01	9.995001e-01	9.995012e-01	9.995017e-01	9.995015e-01	9.995003e-01	9.994981e-01	9.994954e-01	9.994935e-01	9.994917e-01	9.994945e-01	9.994944e-01	9.994951e-01	9.994955e-01	9.994932e-01	9.994903e-01	9.994818e-01	9.994712e-01	9.994610e-01	9.994566e-01	9.994644e-01	9.995156e-01	9.997340e-01	1.000514e+00	1.002603e+00	1.006345e+00	1.010678e+00	1.014015e+00	1.015777e+00	1.016373e+00	1.016437e+00	1.016238e+00	1.015056e+00	1.012493e+00	1.009098e+00	1.005447e+00	1.001843e+00	9.985183e-01	9.957001e-01	9.935572e-01	9.921500e-01	9.913993e-01	9.911152e-01	9.910708e-01	9.911024e-01	9.913456e-01	9.920085e-01	9.929746e-01	9.939936e-01	9.949115e-01	9.956607e-01	9.962376e-01	9.966696e-01	9.969903e-01	9.972250e-01	9.973880e-01	9.974899e-01	9.975432e-01	9.975642e-01	9.975701e-01	9.975764e-01	9.976108e-01	9.977809e-01	9.984558e-01	1.000390e+00	1.004077e+00	1.008617e+00	1.012319e+00	1.014379e+00	1.015133e+00	1.015237e+00	1.015094e+00	1.014119e+00	1.011771e+00	1.008505e+00	1.004914e+00	1.001307e+00	9.979156e-01	9.949792e-01	9.926798e-01	9.910979e-01	9.901871e-01	9.897800e-01	9.896477e-01	9.896031e-01	9.897199e-01	9.902306e-01	9.910711e-01	9.920055e-01	9.928599e-01	9.935322e-01	9.939976e-01	9.942378e-01	9.943842e-01	9.995055e-01	9.995188e-01	9.995079e-01	9.995067e-01	9.995044e-01	9.995028e-01	9.995020e-01	9.995013e-01	9.995014e-01	9.995024e-01	9.995027e-01	9.995025e-01	9.995016e-01	9.995001e-01	9.994980e-01	9.994959e-01	9.994933e-01	9.994956e-01	9.994954e-01	9.994962e-01	9.994966e-01	9.994939e-01	9.994908e-01	9.994831e-01	9.994739e-01	9.994649e-01	9.994619e-01	9.994675e-01	9.995121e-01	9.997151e-01	1.000478e+00	1.002577e+00	1.006350e+00	1.010693e+00	1.014002e+00	1.015734e+00	1.016310e+00	1.016367e+00	1.016183e+00	1.015097e+00	1.012591e+00	1.009159e+00	1.005490e+00	1.001913e+00	9.986171e-01	9.958188e-01	9.936818e-01	9.922684e-01	9.915025e-01	9.911993e-01	9.911378e-01	9.911563e-01	9.913552e-01	9.919737e-01	9.929370e-01	9.939660e-01	9.948865e-01	9.956400e-01	9.962236e-01	9.966607e-01	9.969844e-01	9.972198e-01	9.973827e-01	9.974843e-01	9.975375e-01	9.975586e-01	9.975643e-01	9.975699e-01	9.976014e-01	9.977632e-01	9.984257e-01	1.000371e+00	1.004093e+00	1.008636e+00	1.012299e+00	1.014324e+00	1.015057e+00	1.015153e+00	1.015020e+00	1.014137e+00	1.011868e+00	1.008574e+00	1.004955e+00	1.001369e+00	9.980077e-01	9.950919e-01	9.927988e-01	9.912124e-01	9.902879e-01	9.898615e-01	9.897108e-01	9.896577e-01	9.897381e-01	9.902011e-01	9.910308e-01	9.919727e-01	9.928297e-01	9.935045e-01	9.939733e-01	9.942133e-01	9.943590e-01	9.995067e-01	9.995215e-01	9.995099e-01	9.995084e-01	9.995058e-01	9.995033e-01	9.995021e-01	9.995023e-01	9.995026e-01	9.995032e-01	9.995030e-01	9.995021e-01	9.995007e-01	9.994993e-01	9.994980e-01	9.994966e-01	9.994941e-01	9.994962e-01	9.994962e-01	9.994967e-01	9.994969e-01	9.994937e-01	9.994907e-01	9.994833e-01	9.994747e-01	9.994666e-01	9.994638e-01	9.994685e-01	9.995094e-01	9.997016e-01	1.000446e+00	1.002535e+00	1.006319e+00	1.010648e+00	1.013927e+00	1.015636e+00	1.016204e+00	1.016262e+00	1.016103e+00	1.015111e+00	1.012698e+00	1.009265e+00	1.005569e+00	1.001998e+00	9.987338e-01	9.959493e-01	9.938080e-01	9.923781e-01	9.915915e-01	9.912688e-01	9.911948e-01	9.912068e-01	9.913681e-01	9.919315e-01	9.928774e-01	9.939176e-01	9.948467e-01	9.956047e-01	9.961950e-01	9.966397e-01	9.969689e-01	9.972072e-01	9.973714e-01	9.974738e-01	9.975278e-01	9.975499e-01	9.975564e-01	9.975624e-01	9.975936e-01	9.977527e-01	9.984074e-01	1.000345e+00	1.004072e+00	1.008600e+00	1.012225e+00	1.014225e+00	1.014950e+00	1.015044e+00	1.014921e+00	1.014122e+00	1.011964e+00	1.008686e+00	1.005035e+00	1.001448e+00	9.981183e-01	9.952185e-01	9.929224e-01	9.913206e-01	9.903740e-01	9.899273e-01	9.897673e-01	9.897077e-01	9.897594e-01	9.901677e-01	9.909686e-01	9.919154e-01	9.927798e-01	9.934586e-01	9.939310e-01	9.941718e-01	9.943193e-01	9.995051e-01	9.995188e-01	9.995097e-01	9.995088e-01	9.995059e-01	9.995033e-01	9.995018e-01	9.995015e-01	9.995027e-01	9.995032e-01	9.995028e-01	9.995013e-01	9.994992e-01	9.994972e-01	9.994956e-01	9.994946e-01	9.994928e-01	9.994952e-01	9.994959e-01	9.994962e-01	9.994958e-01	9.994922e-01	9.994891e-01	9.994808e-01	9.994730e-01	9.994649e-01	9.994618e-01	9.994663e-01	9.995055e-01	9.996917e-01	1.000422e+00	1.002488e+00	1.006250e+00	1.010560e+00	1.013814e+00	1.015511e+00	1.016080e+00	1.016141e+00	1.015999e+00	1.015097e+00	1.012799e+00	1.009406e+00	1.005687e+00	1.002118e+00	9.988770e-01	9.961012e-01	9.939459e-01	9.924901e-01	9.916767e-01	9.913321e-01	9.912466e-01	9.912520e-01	9.913817e-01	9.918866e-01	9.928004e-01	9.938485e-01	9.947931e-01	9.955582e-01	9.961551e-01	9.966086e-01	9.969451e-01	9.971879e-01	9.973546e-01	9.974583e-01	9.975135e-01	9.975369e-01	9.975448e-01	9.975518e-01	9.975845e-01	9.977460e-01	9.984002e-01	1.000322e+00	1.004015e+00	1.008509e+00	1.012106e+00	1.014091e+00	1.014817e+00	1.014916e+00	1.014807e+00	1.014083e+00	1.012046e+00	1.008825e+00	1.005154e+00	1.001563e+00	9.982544e-01	9.953660e-01	9.930593e-01	9.914327e-01	9.904578e-01	9.899878e-01	9.898147e-01	9.897495e-01	9.897774e-01	9.901307e-01	9.908893e-01	9.918329e-01	9.927103e-01	9.933965e-01	9.938735e-01	9.941170e-01	9.942690e-01	9.995024e-01	9.995146e-01	9.995077e-01	9.995074e-01	9.995045e-01	9.995019e-01	9.995005e-01	9.995001e-01	9.995014e-01	9.995028e-01	9.995026e-01	9.995012e-01	9.994987e-01	9.994961e-01	9.994939e-01	9.994921e-01	9.994913e-01	9.994914e-01	9.994943e-01	9.994947e-01	9.994938e-01	9.994900e-01	9.994851e-01	9.994763e-01	9.994684e-01	9.994621e-01	9.994593e-01	9.994642e-01	9.995025e-01	9.996852e-01	1.000406e+00	1.002447e+00	1.006162e+00	1.010430e+00	1.013664e+00	1.015358e+00	1.015936e+00	1.016007e+00	1.015882e+00	1.015060e+00	1.012890e+00	1.009571e+00	1.005855e+00	1.002278e+00	9.990473e-01	9.962795e-01	9.941076e-01	9.926178e-01	9.917695e-01	9.913989e-01	9.912978e-01	9.912964e-01	9.913975e-01	9.918411e-01	9.927110e-01	9.937629e-01	9.947261e-01	9.955041e-01	9.961095e-01	9.965707e-01	9.969148e-01	9.971636e-01	9.973329e-01	9.974380e-01	9.974944e-01	9.975191e-01	9.975283e-01	9.975369e-01	9.975728e-01	9.977403e-01	9.983998e-01	1.000306e+00	1.003944e+00	1.008377e+00	1.011943e+00	1.013924e+00	1.014658e+00	1.014767e+00	1.014675e+00	1.014025e+00	1.012115e+00	1.008982e+00	1.005324e+00	1.001720e+00	9.984165e-01	9.955387e-01	9.932201e-01	9.915621e-01	9.905517e-01	9.900528e-01	9.898607e-01	9.897886e-01	9.897940e-01	9.900926e-01	9.907995e-01	9.917318e-01	9.926227e-01	9.933221e-01	9.938069e-01	9.940540e-01	9.942107e-01	9.995002e-01	9.995107e-01	9.995053e-01	9.995054e-01	9.995027e-01	9.995004e-01	9.994990e-01	9.994995e-01	9.994999e-01	9.995019e-01	9.995029e-01	9.995019e-01	9.994991e-01	9.994959e-01	9.994929e-01	9.994909e-01	9.994898e-01	9.994900e-01	9.994897e-01	9.994912e-01	9.994897e-01	9.994862e-01	9.994798e-01	9.994738e-01	9.994669e-01	9.994613e-01	9.994584e-01	9.994636e-01	9.995019e-01	9.996829e-01	1.000396e+00	1.002409e+00	1.006066e+00	1.010274e+00	1.013483e+00	1.015182e+00	1.015775e+00	1.015856e+00	1.015751e+00	1.015007e+00	1.012973e+00	1.009757e+00	1.006066e+00	1.002478e+00	9.992475e-01	9.964857e-01	9.942990e-01	9.927706e-01	9.918774e-01	9.914746e-01	9.913574e-01	9.913491e-01	9.914228e-01	9.918004e-01	9.926125e-01	9.936550e-01	9.946383e-01	9.954383e-01	9.960559e-01	9.965272e-01	9.968800e-01	9.971341e-01	9.973070e-01	9.974141e-01	9.974718e-01	9.974979e-01	9.975086e-01	9.975199e-01	9.975607e-01	9.977372e-01	9.984054e-01	1.000295e+00	1.003866e+00	1.008221e+00	1.011751e+00	1.013734e+00	1.014483e+00	1.014604e+00	1.014525e+00	1.013949e+00	1.012173e+00	1.009151e+00	1.005529e+00	1.001915e+00	9.986079e-01	9.957370e-01	9.934095e-01	9.917173e-01	9.906636e-01	9.901288e-01	9.899155e-01	9.898346e-01	9.898194e-01	9.900604e-01	9.907059e-01	9.916143e-01	9.925137e-01	9.932305e-01	9.937273e-01	9.939788e-01	9.941407e-01	9.995005e-01	9.995097e-01	9.995041e-01	9.995042e-01	9.995016e-01	9.994996e-01	9.994987e-01	9.994991e-01	9.995004e-01	9.995001e-01	9.995013e-01	9.995013e-01	9.994995e-01	9.994956e-01	9.994922e-01	9.994899e-01	9.994888e-01	9.994904e-01	9.994912e-01	9.994909e-01	9.994893e-01	9.994859e-01	9.994807e-01	9.994737e-01	9.994666e-01	9.994614e-01	9.994590e-01	9.994647e-01	9.995033e-01	9.996842e-01	1.000392e+00	1.002373e+00	1.005959e+00	1.010095e+00	1.013278e+00	1.014987e+00	1.015598e+00	1.015691e+00	1.015604e+00	1.014941e+00	1.013049e+00	1.009954e+00	1.006312e+00	1.002722e+00	9.994836e-01	9.967208e-01	9.945205e-01	9.929536e-01	9.920094e-01	9.915643e-01	9.914257e-01	9.914133e-01	9.914645e-01	9.917705e-01	9.925100e-01	9.935319e-01	9.945350e-01	9.953616e-01	9.959971e-01	9.964790e-01	9.968401e-01	9.971017e-01	9.972799e-01	9.973900e-01	9.974498e-01	9.974777e-01	9.974907e-01	9.975057e-01	9.975525e-01	9.977404e-01	9.984194e-01	1.000288e+00	1.003780e+00	1.008045e+00	1.011536e+00	1.013526e+00	1.014294e+00	1.014432e+00	1.014363e+00	1.013855e+00	1.012219e+00	1.009328e+00	1.005764e+00	1.002151e+00	9.988343e-01	9.959619e-01	9.936267e-01	9.919025e-01	9.907991e-01	9.902203e-01	9.899838e-01	9.898934e-01	9.898595e-01	9.900402e-01	9.906129e-01	9.914866e-01	9.923912e-01	9.931265e-01	9.936371e-01	9.938933e-01	9.940597e-01	9.995007e-01	9.995109e-01	9.995037e-01	9.995039e-01	9.995014e-01	9.994996e-01	9.994989e-01	9.994990e-01	9.994999e-01	9.994998e-01	9.994986e-01	9.994986e-01	9.994971e-01	9.994950e-01	9.994921e-01	9.994901e-01	9.994891e-01	9.994903e-01	9.994914e-01	9.994921e-01	9.994908e-01	9.994863e-01	9.994803e-01	9.994737e-01	9.994672e-01	9.994629e-01	9.994608e-01	9.994667e-01	9.995058e-01	9.996887e-01	1.000393e+00	1.002338e+00	1.005838e+00	1.009892e+00	1.013048e+00	1.014772e+00	1.015407e+00	1.015511e+00	1.015443e+00	1.014862e+00	1.013117e+00	1.010159e+00	1.006584e+00	1.003005e+00	9.997580e-01	9.969873e-01	9.947712e-01	9.931673e-01	9.921709e-01	9.916770e-01	9.915071e-01	9.914857e-01	9.915193e-01	9.917541e-01	9.924063e-01	9.933920e-01	9.944104e-01	9.952677e-01	9.959274e-01	9.964250e-01	9.967964e-01	9.970659e-01	9.972500e-01	9.973645e-01	9.974277e-01	9.974587e-01	9.974752e-01	9.974941e-01	9.975485e-01	9.977501e-01	9.984420e-01	1.000285e+00	1.003684e+00	1.007848e+00	1.011297e+00	1.013299e+00	1.014093e+00	1.014247e+00	1.014189e+00	1.013746e+00	1.012252e+00	1.009507e+00	1.006021e+00	1.002425e+00	9.990988e-01	9.962171e-01	9.938702e-01	9.921169e-01	9.909644e-01	9.903338e-01	9.900618e-01	9.899629e-01	9.899134e-01	9.900321e-01	9.905204e-01	9.913466e-01	9.922507e-01	9.930059e-01	9.935337e-01	9.937966e-01	9.939683e-01	9.995012e-01	9.995114e-01	9.995029e-01	9.995034e-01	9.995011e-01	9.994996e-01	9.994987e-01	9.994985e-01	9.994983e-01	9.994979e-01	9.994967e-01	9.994949e-01	9.994942e-01	9.994925e-01	9.994910e-01	9.994898e-01	9.994893e-01	9.994906e-01	9.994916e-01	9.994916e-01	9.994896e-01	9.994854e-01	9.994796e-01	9.994731e-01	9.994672e-01	9.994633e-01	9.994615e-01	9.994678e-01	9.995082e-01	9.996949e-01	1.000400e+00	1.002306e+00	1.005704e+00	1.009661e+00	1.012790e+00	1.014535e+00	1.015198e+00	1.015319e+00	1.015269e+00	1.014769e+00	1.013175e+00	1.010366e+00	1.006874e+00	1.003318e+00	1.000067e+00	9.972843e-01	9.950485e-01	9.934073e-01	9.923583e-01	9.918121e-01	9.916048e-01	9.915671e-01	9.915835e-01	9.917514e-01	9.923043e-01	9.932350e-01	9.942616e-01	9.951528e-01	9.958446e-01	9.963633e-01	9.967479e-01	9.970263e-01	9.972166e-01	9.973357e-01	9.974029e-01	9.974376e-01	9.974579e-01	9.974817e-01	9.975443e-01	9.977614e-01	9.984672e-01	1.000282e+00	1.003578e+00	1.007625e+00	1.011030e+00	1.013051e+00	1.013875e+00	1.014047e+00	1.014000e+00	1.013621e+00	1.012272e+00	1.009684e+00	1.006293e+00	1.002728e+00	9.993982e-01	9.965031e-01	9.941385e-01	9.923550e-01	9.911556e-01	9.904712e-01	9.901568e-01	9.900364e-01	9.899748e-01	9.900335e-01	9.904270e-01	9.911898e-01	9.920865e-01	9.928635e-01	9.934143e-01	9.936884e-01	9.938680e-01	9.994990e-01	9.995090e-01	9.995002e-01	9.995012e-01	9.994995e-01	9.994981e-01	9.994970e-01	9.994963e-01	9.994956e-01	9.994945e-01	9.994937e-01	9.994924e-01	9.994907e-01	9.994904e-01	9.994896e-01	9.994891e-01	9.994890e-01	9.994903e-01	9.994910e-01	9.994902e-01	9.994873e-01	9.994828e-01	9.994773e-01	9.994712e-01	9.994658e-01	9.994623e-01	9.994610e-01	9.994683e-01	9.995108e-01	9.997034e-01	1.000412e+00	1.002275e+00	1.005559e+00	1.009406e+00	1.012504e+00	1.014275e+00	1.014973e+00	1.015115e+00	1.015078e+00	1.014658e+00	1.013222e+00	1.010571e+00	1.007176e+00	1.003654e+00	1.000404e+00	9.976087e-01	9.953494e-01	9.936684e-01	9.925638e-01	9.919600e-01	9.917100e-01	9.916497e-01	9.916543e-01	9.917620e-01	9.922085e-01	9.930655e-01	9.940894e-01	9.950156e-01	9.957459e-01	9.962912e-01	9.966927e-01	9.969805e-01	9.971765e-01	9.973003e-01	9.973717e-01	9.974102e-01	9.974343e-01	9.974629e-01	9.975350e-01	9.977699e-01	9.984921e-01	1.000277e+00	1.003460e+00	1.007379e+00	1.010731e+00	1.012773e+00	1.013635e+00	1.013830e+00	1.013792e+00	1.013476e+00	1.012276e+00	1.009856e+00	1.006576e+00	1.003054e+00	9.997265e-01	9.968173e-01	9.944297e-01	9.926115e-01	9.913635e-01	9.906235e-01	9.902617e-01	9.901132e-01	9.900383e-01	9.900429e-01	9.903348e-01	9.910159e-01	9.918940e-01	9.926944e-01	9.932756e-01	9.935676e-01	9.937592e-01	9.994945e-01	9.995042e-01	9.994956e-01	9.994975e-01	9.994964e-01	9.994952e-01	9.994938e-01	9.994926e-01	9.994918e-01	9.994906e-01	9.994900e-01	9.994900e-01	9.994892e-01	9.994883e-01	9.994880e-01	9.994879e-01	9.994880e-01	9.994888e-01	9.994888e-01	9.994872e-01	9.994835e-01	9.994790e-01	9.994738e-01	9.994681e-01	9.994631e-01	9.994597e-01	9.994592e-01	9.994682e-01	9.995139e-01	9.997169e-01	1.000430e+00	1.002247e+00	1.005406e+00	1.009132e+00	1.012193e+00	1.013992e+00	1.014730e+00	1.014896e+00	1.014872e+00	1.014528e+00	1.013253e+00	1.010774e+00	1.007490e+00	1.004013e+00	1.000769e+00	9.979610e-01	9.956750e-01	9.939501e-01	9.927855e-01	9.921176e-01	9.918175e-01	9.917302e-01	9.917247e-01	9.917858e-01	9.921260e-01	9.928918e-01	9.938990e-01	9.948584e-01	9.956307e-01	9.962088e-01	9.966296e-01	9.969278e-01	9.971298e-01	9.972578e-01	9.973327e-01	9.973747e-01	9.974026e-01	9.974369e-01	9.975200e-01	9.977751e-01	9.985156e-01	1.000270e+00	1.003336e+00	1.007114e+00	1.010403e+00	1.012464e+00	1.013370e+00	1.013594e+00	1.013567e+00	1.013311e+00	1.012262e+00	1.010022e+00	1.006869e+00	1.003401e+00	1.000082e+00	9.971592e-01	9.947450e-01	9.928872e-01	9.915854e-01	9.907847e-01	9.903697e-01	9.901884e-01	9.901001e-01	9.900620e-01	9.902517e-01	9.908325e-01	9.916761e-01	9.924976e-01	9.931156e-01	9.934321e-01	9.936400e-01	9.994901e-01	9.994994e-01	9.994907e-01	9.994933e-01	9.994929e-01	9.994919e-01	9.994903e-01	9.994892e-01	9.994885e-01	9.994877e-01	9.994875e-01	9.994875e-01	9.994883e-01	9.994876e-01	9.994867e-01	9.994873e-01	9.994867e-01	9.994869e-01	9.994861e-01	9.994836e-01	9.994794e-01	9.994750e-01	9.994701e-01	9.994649e-01	9.994601e-01	9.994576e-01	9.994578e-01	9.994682e-01	9.995187e-01	9.997320e-01	1.000452e+00	1.002220e+00	1.005248e+00	1.008844e+00	1.011860e+00	1.013687e+00	1.014469e+00	1.014662e+00	1.014650e+00	1.014378e+00	1.013267e+00	1.010972e+00	1.007813e+00	1.004394e+00	1.001164e+00	9.983454e-01	9.960314e-01	9.942591e-01	9.930293e-01	9.922910e-01	9.919333e-01	9.918124e-01	9.917961e-01	9.918258e-01	9.920648e-01	9.927224e-01	9.936959e-01	9.946838e-01	9.955009e-01	9.961159e-01	9.965593e-01	9.968703e-01	9.970797e-01	9.972122e-01	9.972903e-01	9.973355e-01	9.973676e-01	9.974087e-01	9.975049e-01	9.977821e-01	9.985422e-01	1.000266e+00	1.003211e+00	1.006839e+00	1.010053e+00	1.012128e+00	1.013082e+00	1.013339e+00	1.013326e+00	1.013126e+00	1.012229e+00	1.010181e+00	1.007168e+00	1.003769e+00	1.000468e+00	9.975326e-01	9.950898e-01	9.931888e-01	9.918284e-01	9.909603e-01	9.904854e-01	9.902652e-01	9.901617e-01	9.900945e-01	9.901902e-01	9.906546e-01	9.914421e-01	9.922761e-01	9.929330e-01	9.932786e-01	9.935066e-01	9.994872e-01	9.994976e-01	9.994874e-01	9.994906e-01	9.994904e-01	9.994897e-01	9.994884e-01	9.994876e-01	9.994874e-01	9.994868e-01	9.994866e-01	9.994865e-01	9.994870e-01	9.994873e-01	9.994874e-01	9.994860e-01	9.994866e-01	9.994854e-01	9.994839