# vtk DataFile Version 3.0
vtk output
ASCII
DATASET STRUCTURED_GRID
DIMENSIONS 101 101 1
POINTS 10201 double
0.000000e+00	0.000000e+00	0.0	1.000000e-02	0.000000e+00	0.0	2.000000e-02	0.000000e+00	0.0	3.000000e-02	0.000000e+00	0.0	4.000000e-02	0.000000e+00	0.0	5.000000e-02	0.000000e+00	0.0	6.000000e-02	0.000000e+00	0.0	7.000000e-02	0.000000e+00	0.0	8.000000e-02	0.000000e+00	0.0	9.000000e-02	0.000000e+00	0.0	1.000000e-01	0.000000e+00	0.0	1.100000e-01	0.000000e+00	0.0	1.200000e-01	0.000000e+00	0.0	1.300000e-01	0.000000e+00	0.0	1.400000e-01	0.000000e+00	0.0	1.500000e-01	0.000000e+00	0.0	1.600000e-01	0.000000e+00	0.0	1.700000e-01	0.000000e+00	0.0	1.800000e-01	0.000000e+00	0.0	1.900000e-01	0.000000e+00	0.0	2.000000e-01	0.000000e+00	0.0	2.100000e-01	0.000000e+00	0.0	2.200000e-01	0.000000e+00	0.0	2.300000e-01	0.000000e+00	0.0	2.400000e-01	0.000000e+00	0.0	2.500000e-01	0.000000e+00	0.0	2.600000e-01	0.000000e+00	0.0	2.700000e-01	0.000000e+00	0.0	2.800000e-01	0.000000e+00	0.0	2.900000e-01	0.000000e+00	0.0	3.000000e-01	0.000000e+00	0.0	3.100000e-01	0.000000e+00	0.0	3.200000e-01	0.000000e+00	0.0	3.300000e-01	0.000000e+00	0.0	3.400000e-01	0.000000e+00	0.0	3.500000e-01	0.000000e+00	0.0	3.600000e-01	0.000000e+00	0.0	3.700000e-01	0.000000e+00	0.0	3.800000e-01	0.000000e+00	0.0	3.900000e-01	0.000000e+00	0.0	4.000000e-01	0.000000e+00	0.0	4.100000e-01	0.000000e+00	0.0	4.200000e-01	0.000000e+00	0.0	4.300000e-01	0.000000e+00	0.0	4.400000e-01	0.000000e+00	0.0	4.500000e-01	0.000000e+00	0.0	4.600000e-01	0.000000e+00	0.0	4.700000e-01	0.000000e+00	0.0	4.800000e-01	0.000000e+00	0.0	4.900000e-01	0.000000e+00	0.0	5.000000e-01	0.000000e+00	0.0	5.100000e-01	0.000000e+00	0.0	5.200000e-01	0.000000e+00	0.0	5.300000e-01	0.000000e+00	0.0	5.400000e-01	0.000000e+00	0.0	5.500000e-01	0.000000e+00	0.0	5.600000e-01	0.000000e+00	0.0	5.700000e-01	0.000000e+00	0.0	5.800000e-01	0.000000e+00	0.0	5.900000e-01	0.000000e+00	0.0	6.000000e-01	0.000000e+00	0.0	6.100000e-01	0.000000e+00	0.0	6.200000e-01	0.000000e+00	0.0	6.300000e-01	0.000000e+00	0.0	6.400000e-01	0.000000e+00	0.0	6.500000e-01	0.000000e+00	0.0	6.600000e-01	0.000000e+00	0.0	6.700000e-01	0.000000e+00	0.0	6.800000e-01	0.000000e+00	0.0	6.900000e-01	0.000000e+00	0.0	7.000000e-01	0.000000e+00	0.0	7.100000e-01	0.000000e+00	0.0	7.200000e-01	0.000000e+00	0.0	7.300000e-01	0.000000e+00	0.0	7.400000e-01	0.000000e+00	0.0	7.500000e-01	0.000000e+00	0.0	7.600000e-01	0.000000e+00	0.0	7.700000e-01	0.000000e+00	0.0	7.800000e-01	0.000000e+00	0.0	7.900000e-01	0.000000e+00	0.0	8.000000e-01	0.000000e+00	0.0	8.100000e-01	0.000000e+00	0.0	8.200000e-01	0.000000e+00	0.0	8.300000e-01	0.000000e+00	0.0	8.400000e-01	0.000000e+00	0.0	8.500000e-01	0.000000e+00	0.0	8.600000e-01	0.000000e+00	0.0	8.700000e-01	0.000000e+00	0.0	8.800000e-01	0.000000e+00	0.0	8.900000e-01	0.000000e+00	0.0	9.000000e-01	0.000000e+00	0.0	9.100000e-01	0.000000e+00	0.0	9.200000e-01	0.000000e+00	0.0	9.300000e-01	0.000000e+00	0.0	9.400000e-01	0.000000e+00	0.0	9.500000e-01	0.000000e+00	0.0	9.600000e-01	0.000000e+00	0.0	9.700000e-01	0.000000e+00	0.0	9.800000e-01	0.000000e+00	0.0	9.900000e-01	0.000000e+00	0.0	1.000000e+00	0.000000e+00	0.0	0.000000e+00	1.000000e-02	0.0	1.000000e-02	1.000000e-02	0.0	2.000000e-02	1.000000e-02	0.0	3.000000e-02	1.000000e-02	0.0	4.000000e-02	1.000000e-02	0.0	5.000000e-02	1.000000e-02	0.0	6.000000e-02	1.000000e-02	0.0	7.000000e-02	1.000000e-02	0.0	8.000000e-02	1.000000e-02	0.0	9.000000e-02	1.000000e-02	0.0	1.000000e-01	1.000000e-02	0.0	1.100000e-01	1.000000e-02	0.0	1.200000e-01	1.000000e-02	0.0	1.300000e-01	1.000000e-02	0.0	1.400000e-01	1.000000e-02	0.0	1.500000e-01	1.000000e-02	0.0	1.600000e-01	1.000000e-02	0.0	1.700000e-01	1.000000e-02	0.0	1.800000e-01	1.000000e-02	0.0	1.900000e-01	1.000000e-02	0.0	2.000000e-01	1.000000e-02	0.0	2.100000e-01	1.000000e-02	0.0	2.200000e-01	1.000000e-02	0.0	2.300000e-01	1.000000e-02	0.0	2.400000e-01	1.000000e-02	0.0	2.500000e-01	1.000000e-02	0.0	2.600000e-01	1.000000e-02	0.0	2.700000e-01	1.000000e-02	0.0	2.800000e-01	1.000000e-02	0.0	2.900000e-01	1.000000e-02	0.0	3.000000e-01	1.000000e-02	0.0	3.100000e-01	1.000000e-02	0.0	3.200000e-01	1.000000e-02	0.0	3.300000e-01	1.000000e-02	0.0	3.400000e-01	1.000000e-02	0.0	3.500000e-01	1.000000e-02	0.0	3.600000e-01	1.000000e-02	0.0	3.700000e-01	1.000000e-02	0.0	3.800000e-01	1.000000e-02	0.0	3.900000e-01	1.000000e-02	0.0	4.000000e-01	1.000000e-02	0.0	4.100000e-01	1.000000e-02	0.0	4.200000e-01	1.000000e-02	0.0	4.300000e-01	1.000000e-02	0.0	4.400000e-01	1.000000e-02	0.0	4.500000e-01	1.000000e-02	0.0	4.600000e-01	1.000000e-02	0.0	4.700000e-01	1.000000e-02	0.0	4.800000e-01	1.000000e-02	0.0	4.900000e-01	1.000000e-02	0.0	5.000000e-01	1.000000e-02	0.0	5.100000e-01	1.000000e-02	0.0	5.200000e-01	1.000000e-02	0.0	5.300000e-01	1.000000e-02	0.0	5.400000e-01	1.000000e-02	0.0	5.500000e-01	1.000000e-02	0.0	5.600000e-01	1.000000e-02	0.0	5.700000e-01	1.000000e-02	0.0	5.800000e-01	1.000000e-02	0.0	5.900000e-01	1.000000e-02	0.0	6.000000e-01	1.000000e-02	0.0	6.100000e-01	1.000000e-02	0.0	6.200000e-01	1.000000e-02	0.0	6.300000e-01	1.000000e-02	0.0	6.400000e-01	1.000000e-02	0.0	6.500000e-01	1.000000e-02	0.0	6.600000e-01	1.000000e-02	0.0	6.700000e-01	1.000000e-02	0.0	6.800000e-01	1.000000e-02	0.0	6.900000e-01	1.000000e-02	0.0	7.000000e-01	1.000000e-02	0.0	7.100000e-01	1.000000e-02	0.0	7.200000e-01	1.000000e-02	0.0	7.300000e-01	1.000000e-02	0.0	7.400000e-01	1.000000e-02	0.0	7.500000e-01	1.000000e-02	0.0	7.600000e-01	1.000000e-02	0.0	7.700000e-01	1.000000e-02	0.0	7.800000e-01	1.000000e-02	0.0	7.900000e-01	1.000000e-02	0.0	8.000000e-01	1.000000e-02	0.0	8.100000e-01	1.000000e-02	0.0	8.200000e-01	1.000000e-02	0.0	8.300000e-01	1.000000e-02	0.0	8.400000e-01	1.000000e-02	0.0	8.500000e-01	1.000000e-02	0.0	8.600000e-01	1.000000e-02	0.0	8.700000e-01	1.000000e-02	0.0	8.800000e-01	1.000000e-02	0.0	8.900000e-01	1.000000e-02	0.0	9.000000e-01	1.000000e-02	0.0	9.100000e-01	1.000000e-02	0.0	9.200000e-01	1.000000e-02	0.0	9.300000e-01	1.000000e-02	0.0	9.400000e-01	1.000000e-02	0.0	9.500000e-01	1.000000e-02	0.0	9.600000e-01	1.000000e-02	0.0	9.700000e-01	1.000000e-02	0.0	9.800000e-01	1.000000e-02	0.0	9.900000e-01	1.000000e-02	0.0	1.000000e+00	1.000000e-02	0.0	0.000000e+00	2.000000e-02	0.0	1.000000e-02	2.000000e-02	0.0	2.000000e-02	2.000000e-02	0.0	3.000000e-02	2.000000e-02	0.0	4.000000e-02	2.000000e-02	0.0	5.000000e-02	2.000000e-02	0.0	6.000000e-02	2.000000e-02	0.0	7.000000e-02	2.000000e-02	0.0	8.000000e-02	2.000000e-02	0.0	9.000000e-02	2.000000e-02	0.0	1.000000e-01	2.000000e-02	0.0	1.100000e-01	2.000000e-02	0.0	1.200000e-01	2.000000e-02	0.0	1.300000e-01	2.000000e-02	0.0	1.400000e-01	2.000000e-02	0.0	1.500000e-01	2.000000e-02	0.0	1.600000e-01	2.000000e-02	0.0	1.700000e-01	2.000000e-02	0.0	1.800000e-01	2.000000e-02	0.0	1.900000e-01	2.000000e-02	0.0	2.000000e-01	2.000000e-02	0.0	2.100000e-01	2.000000e-02	0.0	2.200000e-01	2.000000e-02	0.0	2.300000e-01	2.000000e-02	0.0	2.400000e-01	2.000000e-02	0.0	2.500000e-01	2.000000e-02	0.0	2.600000e-01	2.000000e-02	0.0	2.700000e-01	2.000000e-02	0.0	2.800000e-01	2.000000e-02	0.0	2.900000e-01	2.000000e-02	0.0	3.000000e-01	2.000000e-02	0.0	3.100000e-01	2.000000e-02	0.0	3.200000e-01	2.000000e-02	0.0	3.300000e-01	2.000000e-02	0.0	3.400000e-01	2.000000e-02	0.0	3.500000e-01	2.000000e-02	0.0	3.600000e-01	2.000000e-02	0.0	3.700000e-01	2.000000e-02	0.0	3.800000e-01	2.000000e-02	0.0	3.900000e-01	2.000000e-02	0.0	4.000000e-01	2.000000e-02	0.0	4.100000e-01	2.000000e-02	0.0	4.200000e-01	2.000000e-02	0.0	4.300000e-01	2.000000e-02	0.0	4.400000e-01	2.000000e-02	0.0	4.500000e-01	2.000000e-02	0.0	4.600000e-01	2.000000e-02	0.0	4.700000e-01	2.000000e-02	0.0	4.800000e-01	2.000000e-02	0.0	4.900000e-01	2.000000e-02	0.0	5.000000e-01	2.000000e-02	0.0	5.100000e-01	2.000000e-02	0.0	5.200000e-01	2.000000e-02	0.0	5.300000e-01	2.000000e-02	0.0	5.400000e-01	2.000000e-02	0.0	5.500000e-01	2.000000e-02	0.0	5.600000e-01	2.000000e-02	0.0	5.700000e-01	2.000000e-02	0.0	5.800000e-01	2.000000e-02	0.0	5.900000e-01	2.000000e-02	0.0	6.000000e-01	2.000000e-02	0.0	6.100000e-01	2.000000e-02	0.0	6.200000e-01	2.000000e-02	0.0	6.300000e-01	2.000000e-02	0.0	6.400000e-01	2.000000e-02	0.0	6.500000e-01	2.000000e-02	0.0	6.600000e-01	2.000000e-02	0.0	6.700000e-01	2.000000e-02	0.0	6.800000e-01	2.000000e-02	0.0	6.900000e-01	2.000000e-02	0.0	7.000000e-01	2.000000e-02	0.0	7.100000e-01	2.000000e-02	0.0	7.200000e-01	2.000000e-02	0.0	7.300000e-01	2.000000e-02	0.0	7.400000e-01	2.000000e-02	0.0	7.500000e-01	2.000000e-02	0.0	7.600000e-01	2.000000e-02	0.0	7.700000e-01	2.000000e-02	0.0	7.800000e-01	2.000000e-02	0.0	7.900000e-01	2.000000e-02	0.0	8.000000e-01	2.000000e-02	0.0	8.100000e-01	2.000000e-02	0.0	8.200000e-01	2.000000e-02	0.0	8.300000e-01	2.000000e-02	0.0	8.400000e-01	2.000000e-02	0.0	8.500000e-01	2.000000e-02	0.0	8.600000e-01	2.000000e-02	0.0	8.700000e-01	2.000000e-02	0.0	8.800000e-01	2.000000e-02	0.0	8.900000e-01	2.000000e-02	0.0	9.000000e-01	2.000000e-02	0.0	9.100000e-01	2.000000e-02	0.0	9.200000e-01	2.000000e-02	0.0	9.300000e-01	2.000000e-02	0.0	9.400000e-01	2.000000e-02	0.0	9.500000e-01	2.000000e-02	0.0	9.600000e-01	2.000000e-02	0.0	9.700000e-01	2.000000e-02	0.0	9.800000e-01	2.000000e-02	0.0	9.900000e-01	2.000000e-02	0.0	1.000000e+00	2.000000e-02	0.0	0.000000e+00	3.000000e-02	0.0	1.000000e-02	3.000000e-02	0.0	2.000000e-02	3.000000e-02	0.0	3.000000e-02	3.000000e-02	0.0	4.000000e-02	3.000000e-02	0.0	5.000000e-02	3.000000e-02	0.0	6.000000e-02	3.000000e-02	0.0	7.000000e-02	3.000000e-02	0.0	8.000000e-02	3.000000e-02	0.0	9.000000e-02	3.000000e-02	0.0	1.000000e-01	3.000000e-02	0.0	1.100000e-01	3.000000e-02	0.0	1.200000e-01	3.000000e-02	0.0	1.300000e-01	3.000000e-02	0.0	1.400000e-01	3.000000e-02	0.0	1.500000e-01	3.000000e-02	0.0	1.600000e-01	3.000000e-02	0.0	1.700000e-01	3.000000e-02	0.0	1.800000e-01	3.000000e-02	0.0	1.900000e-01	3.000000e-02	0.0	2.000000e-01	3.000000e-02	0.0	2.100000e-01	3.000000e-02	0.0	2.200000e-01	3.000000e-02	0.0	2.300000e-01	3.000000e-02	0.0	2.400000e-01	3.000000e-02	0.0	2.500000e-01	3.000000e-02	0.0	2.600000e-01	3.000000
[...]
POINT_DATA 10201

SCALARS Height double 1
LOOKUP_TABLE default
9.963939e-01	9.963870e-01	9.963932e-01	9.963660e-01	9.963413e-01	9.963069e-01	9.962618e-01	9.962073e-01	9.961485e-01	9.960815e-01	9.960052e-01	9.959178e-01	9.958156e-01	9.956978e-01	9.955616e-01	9.954039e-01	9.952227e-01	9.950149e-01	9.947762e-01	9.945009e-01	9.941799e-01	9.937792e-01	9.932460e-01	9.924759e-01	9.913233e-01	9.896702e-01	9.875471e-01	9.852213e-01	9.831448e-01	9.817011e-01	9.809824e-01	9.808884e-01	9.816282e-01	9.840688e-01	9.884247e-01	9.944687e-01	1.001748e+00	1.009711e+00	1.017616e+00	1.024524e+00	1.029540e+00	1.032326e+00	1.033049e+00	1.031636e+00	1.025538e+00	1.015183e+00	1.005683e+00	1.000364e+00	9.982597e-01	9.975836e-01	9.973848e-01	9.973148e-01	9.972674e-01	9.972034e-01	9.971014e-01	9.969546e-01	9.967675e-01	9.965475e-01	9.962973e-01	9.960165e-01	9.956978e-01	9.953162e-01	9.948218e-01	9.941220e-01	9.930742e-01	9.915301e-01	9.894660e-01	9.871055e-01	9.849090e-01	9.833092e-01	9.824325e-01	9.822199e-01	9.827178e-01	9.848316e-01	9.889321e-01	9.948660e-01	1.002195e+00	1.010332e+00	1.018507e+00	1.025748e+00	1.031115e+00	1.034225e+00	1.035171e+00	1.034078e+00	1.028448e+00	1.018177e+00	1.008408e+00	1.002934e+00	1.000845e+00	1.000219e+00	1.000053e+00	1.000013e+00	1.000003e+00	1.000001e+00	1.000000e+00	1.000000e+00	1.000000e+00	1.000000e+00	1.000000e+00	1.000000e+00	1.000000e+00	9.963870e-01	9.963727e-01	9.963821e-01	9.963547e-01	9.963283e-01	9.962925e-01	9.962473e-01	9.961930e-01	9.961327e-01	9.960635e-01	9.959843e-01	9.958937e-01	9.957888e-01	9.956682e-01	9.955288e-01	9.953671e-01	9.951814e-01	9.949706e-01	9.947249e-01	9.944444e-01	9.941171e-01	9.937097e-01	9.931653e-01	9.923806e-01	9.912149e-01	9.895502e-01	9.874205e-01	9.850846e-01	9.829526e-01	9.814704e-01	9.809228e-01	9.809334e-01	9.816836e-01	9.840997e-01	9.884978e-01	9.945845e-01	1.001905e+00	1.009889e+00	1.017813e+00	1.024852e+00	1.030118e+00	1.032633e+00	1.032941e+00	1.031607e+00	1.025854e+00	1.015466e+00	1.005388e+00	9.998974e-01	9.979939e-01	9.974787e-01	9.973413e-01	9.972885e-01	9.972450e-01	9.971820e-01	9.970799e-01	9.969317e-01	9.967420e-01	9.965191e-01	9.962660e-01	9.959817e-01	9.956575e-01	9.952693e-01	9.947642e-01	9.940480e-01	9.929819e-01	9.914228e-01	9.893476e-01	9.869731e-01	9.847231e-01	9.830579e-01	9.823266e-01	9.822549e-01	9.827780e-01	9.848647e-01	9.890025e-01	9.949704e-01	1.002342e+00	1.010506e+00	1.018701e+00	1.026057e+00	1.031698e+00	1.034621e+00	1.035072e+00	1.034038e+00	1.028744e+00	1.018517e+00	1.008121e+00	1.002441e+00	1.000576e+00	1.000124e+00	1.000027e+00	1.000006e+00	1.000001e+00	1.000000e+00	1.000000e+00	1.000000e+00	1.000000e+00	1.000000e+00	1.000000e+00	1.000000e+00	1.000000e+00	9.963932e-01	9.963821e-01	9.963957e-01	9.963675e-01	9.963405e-01	9.963033e-01	9.962561e-01	9.961993e-01	9.961375e-01	9.960671e-01	9.959868e-01	9.958956e-01	9.957902e-01	9.956691e-01	9.955291e-01	9.953677e-01	9.951825e-01	9.949714e-01	9.947258e-01	9.944441e-01	9.941096e-01	9.936819e-01	9.931024e-01	9.922729e-01	9.910738e-01	9.894233e-01	9.873695e-01	9.851286e-01	9.830673e-01	9.817407e-01	9.813528e-01	9.813822e-01	9.821533e-01	9.845208e-01	9.888759e-01	9.948577e-01	1.001988e+00	1.009749e+00	1.017552e+00	1.024667e+00	1.029822e+00	1.031841e+00	1.032052e+00	1.030763e+00	1.025551e+00	1.015864e+00	1.005956e+00	1.000198e+00	9.980845e-01	9.975030e-01	9.973473e-01	9.972884e-01	9.972428e-01	9.971800e-01	9.970795e-01	9.969330e-01	9.967443e-01	9.965214e-01	9.962676e-01	9.959798e-01	9.956473e-01	9.952447e-01	9.947135e-01	9.939571e-01	9.928495e-01	9.912878e-01	9.892711e-01	9.869875e-01	9.848043e-01	9.832849e-01	9.827501e-01	9.827046e-01	9.832740e-01	9.853386e-01	9.894173e-01	9.952931e-01	1.002453e+00	1.010374e+00	1.018422e+00	1.025854e+00	1.031440e+00	1.033841e+00	1.034163e+00	1.033133e+00	1.028380e+00	1.018909e+00	1.008755e+00	1.002744e+00	1.000630e+00	1.000120e+00	1.000021e+00	1.000004e+00	1.000001e+00	1.000000e+00	1.000000e+00	1.000000e+00	1.000000e+00	1.000000e+00	1.000000e+00	1.000000e+00	1.000000e+00	9.963660e-01	9.963547e-01	9.963675e-01	9.963410e-01	9.963142e-01	9.962774e-01	9.962310e-01	9.961746e-01	9.961125e-01	9.960421e-01	9.959616e-01	9.958700e-01	9.957641e-01	9.956416e-01	9.954992e-01	9.953346e-01	9.951467e-01	9.949341e-01	9.946825e-01	9.943931e-01	9.940415e-01	9.935805e-01	9.929469e-01	9.920410e-01	9.907663e-01	9.890899e-01	9.870679e-01	9.849041e-01	9.830522e-01	9.820484e-01	9.817821e-01	9.818848e-01	9.827923e-01	9.852963e-01	9.896415e-01	9.955316e-01	1.002442e+00	1.009988e+00	1.017755e+00	1.024848e+00	1.029476e+00	1.031020e+00	1.031083e+00	1.029701e+00	1.024704e+00	1.015704e+00	1.006449e+00	1.000679e+00	9.983072e-01	9.975580e-01	9.973440e-01	9.972661e-01	9.972129e-01	9.971470e-01	9.970459e-01	9.968991e-01	9.967092e-01	9.964842e-01	9.962267e-01	9.959324e-01	9.955862e-01	9.951552e-01	9.945786e-01	9.937533e-01	9.925669e-01	9.909558e-01	9.889488e-01	9.867211e-01	9.847180e-01	9.835360e-01	9.831673e-01	9.831947e-01	9.839080e-01	9.861415e-01	9.902516e-01	9.960276e-01	1.002961e+00	1.010635e+00	1.018616e+00	1.026060e+00	1.031192e+00	1.033049e+00	1.033200e+00	1.032063e+00	1.027507e+00	1.018758e+00	1.009279e+00	1.003224e+00	1.000823e+00	1.000168e+00	1.000029e+00	1.000005e+00	1.000001e+00	1.000000e+00	1.000000e+00	1.000000e+00	1.000000e+00	1.000000e+00	1.000000e+00	1.000000e+00	1.000000e+00	9.963413e-01	9.963283e-01	9.963405e-01	9.963142e-01	9.962866e-01	9.962492e-01	9.962025e-01	9.961445e-01	9.960797e-01	9.960071e-01	9.959250e-01	9.958317e-01	9.957238e-01	9.955987e-01	9.954530e-01	9.952850e-01	9.950939e-01	9.948776e-01	9.946217e-01	9.943215e-01	9.939440e-01	9.934351e-01	9.927249e-01	9.917184e-01	9.903570e-01	9.886306e-01	9.866385e-01	9.846507e-01	9.831771e-01	9.824923e-01	9.823740e-01	9.825660e-01	9.836540e-01	9.863322e-01	9.907145e-01	9.964183e-01	1.003038e+00	1.010378e+00	1.018085e+00	1.024865e+00	1.028799e+00	1.029888e+00	1.029847e+00	1.028351e+00	1.023484e+00	1.015332e+00	1.007008e+00	1.001392e+00	9.986856e-01	9.976802e-01	9.973571e-01	9.972429e-01	9.971761e-01	9.971046e-01	9.970024e-01	9.968557e-01	9.966646e-01	9.964365e-01	9.961740e-01	9.958700e-01	9.955028e-01	9.950289e-01	9.943810e-01	9.934653e-01	9.921868e-01	9.905054e-01	9.884949e-01	9.864068e-01	9.847635e-01	9.839450e-01	9.837529e-01	9.838631e-01	9.847638e-01	9.872035e-01	9.913980e-01	9.970127e-01	1.003633e+00	1.011052e+00	1.018961e+00	1.026154e+00	1.030561e+00	1.031934e+00	1.031971e+00	1.030718e+00	1.026267e+00	1.018356e+00	1.009852e+00	1.003950e+00	1.001181e+00	1.000269e+00	1.000049e+00	1.000008e+00	1.000001e+00	1.000000e+00	1.000000e+00	1.000000e+00	1.000000e+00	1.000000e+00	1.000000e+00	1.000000e+00	1.000000e+00	9.963069e-01	9.962925e-01	9.963033e-01	9.962774e-01	9.962492e-01	9.962115e-01	9.961648e-01	9.961058e-01	9.960385e-01	9.959642e-01	9.958799e-01	9.957836e-01	9.956726e-01	9.955437e-01	9.953931e-01	9.952198e-01	9.950229e-01	9.948005e-01	9.945364e-01	9.942204e-01	9.938090e-01	9.932313e-01	9.924151e-01	9.912952e-01	9.898271e-01	9.880480e-01	9.861205e-01	9.844469e-01	9.834397e-01	9.830715e-01	9.830775e-01	9.834280e-01	9.847760e-01	9.876650e-01	9.920506e-01	9.975190e-01	1.003832e+00	1.010977e+00	1.018477e+00	1.024656e+00	1.027856e+00	1.028550e+00	1.028395e+00	1.026697e+00	1.021971e+00	1.014779e+00	1.007577e+00	1.002264e+00	9.992188e-01	9.978672e-01	9.973835e-01	9.972141e-01	9.971275e-01	9.970475e-01	9.969424e-01	9.967957e-01	9.966038e-01	9.963718e-01	9.961025e-01	9.957835e-01	9.953853e-01	9.948522e-01	9.941028e-01	9.930551e-01	9.916552e-01	9.899071e-01	9.879355e-01	9.861247e-01	9.849587e-01	9.844852e-01	9.844488e-01	9.847030e-01	9.858734e-01	9.885596e-01	9.928137e-01	9.982285e-01	1.004528e+00	1.011695e+00	1.019399e+00	1.026027e+00	1.029701e+00	1.030599e+00	1.030523e+00	1.029092e+00	1.024748e+00	1.017752e+00	1.010420e+00	1.004854e+00	1.001711e+00	1.000443e+00	1.000087e+00	1.000014e+00	1.000002e+00	1.000000e+00	1.000000e+00	1.000000e+00	1.000000e+00	1.000000e+00	1.000000e+00	1.000000e+00	1.000000e+00	9.962618e-01	9.962473e-01	9.962561e-01	9.962310e-01	9.962025e-01	9.961648e-01	9.961185e-01	9.960596e-01	9.959911e-01	9.959150e-01	9.958275e-01	9.957263e-01	9.956100e-01	9.954752e-01	9.953185e-01	9.951386e-01	9.949348e-01	9.947038e-01	9.944273e-01	9.940840e-01	9.936169e-01	9.929432e-01	9.919966e-01	9.907249e-01	9.891348e-01	9.873269e-01	9.856119e-01	9.843996e-01	9.838351e-01	9.837756e-01	9.838908e-01	9.844926e-01	9.861707e-01	9.892654e-01	9.936022e-01	9.988230e-01	1.004845e+00	1.011717e+00	1.018778e+00	1.024148e+00	1.026597e+00	1.026995e+00	1.026712e+00	1.024790e+00	1.020289e+00	1.014151e+00	1.008135e+00	1.003237e+00	9.998927e-01	9.981326e-01	9.974330e-01	9.971852e-01	9.970710e-01	9.969788e-01	9.968681e-01	9.967193e-01	9.965261e-01	9.962896e-01	9.960088e-01	9.956678e-01	9.952206e-01	9.946023e-01	9.937279e-01	9.925279e-01	9.909836e-01	9.891735e-01	9.873604e-01	9.859802e-01	9.853052e-01	9.851757e-01	9.852451e-01	9.857427e-01	9.872563e-01	9.901936e-01	9.944523e-01	9.996506e-01	1.005636e+00	1.012514e+00	1.019781e+00	1.025614e+00	1.028494e+00	1.029047e+00	1.028859e+00	1.027218e+00	1.023053e+00	1.017067e+00	1.010963e+00	1.005861e+00	1.002394e+00	1.000696e+00	1.000146e+00	1.000024e+00	1.000003e+00	1.000000e+00	1.000000e+00	1.000000e+00	1.000000e+00	1.000000e+00	1.000000e+00	1.000000e+00	1.000000e+00	9.962073e-01	9.961930e-01	9.961993e-01	9.961746e-01	9.961445e-01	9.961058e-01	9.960596e-01	9.960017e-01	9.959329e-01	9.958552e-01	9.957646e-01	9.956587e-01	9.955368e-01	9.953956e-01	9.952322e-01	9.950444e-01	9.948321e-01	9.945884e-01	9.942942e-01	9.939048e-01	9.933528e-01	9.925584e-01	9.914500e-01	9.900079e-01	9.882977e-01	9.865654e-01	9.852245e-01	9.845737e-01	9.844366e-01	9.845275e-01	9.848517e-01	9.858135e-01	9.878492e-01	9.910972e-01	9.953312e-01	1.000322e+00	1.006068e+00	1.012508e+00	1.018840e+00	1.023348e+00	1.025055e+00	1.025241e+00	1.024791e+00	1.022687e+00	1.018554e+00	1.013529e+00	1.008665e+00	1.004239e+00	1.000662e+00	9.984666e-01	9.975037e-01	9.971556e-01	9.970066e-01	9.969011e-01	9.967835e-01	9.966312e-01	9.964352e-01	9.961931e-01	9.958956e-01	9.955152e-01	9.949979e-01	9.942610e-01	9.932228e-01	9.918397e-01	9.901567e-01	9.883653e-01	9.868737e-01	9.860910e-01	9.858582e-01	9.859162e-01	9.861785e-01	9.870319e-01	9.889313e-01	9.920772e-01	9.962765e-01	1.001261e+00	1.006977e+00	1.013417e+00	1.019963e+00	1.024905e+00	1.026998e+00	1.027298e+00	1.026965e+00	1.025150e+00	1.021295e+00	1.016380e+00	1.011474e+00	1.006905e+00	1.003194e+00	1.001031e+00	1.000231e+00	1.000039e+00	1.000006e+00	1.000001e+00	1.000000e+00	1.000000e+00	1.000000e+00	1.000000e+00	1.000000e+00	1.000000e+00	1.000000e+00	9.961485e-01	9.961327e-01	9.961375e-01	9.961125e-01	9.960797e-01	9.960385e-01	9.959911e-01	9.959329e-01	9.958620e-01	9.957810e-01	9.956860e-01	9.955747e-01	9.954463e-01	9.952975e-01	9.951259e-01	9.949317e-01	9.947089e-01	9.944455e-01	9.941188e-01	9.936614e-01	9.930002e-01	9.920380e-01	9.907344e-01	9.891074e-01	9.873398e-01	9.858920e-01	9.851648e-01	9.849731e-01	9.850888e-01	9.853701e-01	9.860401e-01	9.874248e-01	9.897908e-01	9.931184e-01	9.972154e-01	1.001985e+00	1.007424e+00	1.013255e+00	1.018572e+00	1.022100e+00	1.023250e+00	1.023275e+00	1.022649e+00	1.020479e+00	1.016896e+00	1.012997e+00	1.009176e+00	1.005224e+00	1.001479e+00	9.988520e-01	9.975901e-01	9.971197e-01	9.969282e-01	9.968060e-01	9.966826e-01	9.965271e-01	9.963272e-01	9.960754e-01	9.957536e-01	9.953170e-01	9.946948e-01	9.937986e-01	9.925577e-01	9.909720e-01	9.891798e-01	9.875978e-01	9.867094e-01	9.864309e-01	9.864992e-01	9.867309e-01	9.873278e-01	9.886107e-01	9.908825e-01	9.941692e-01	9.982660e-01	1.003036e+00	1.008464e+00	1.014310e+00	1.019819e+00	1.023767e+00	1.025237e+00	1.025335e+00	1.024864e+00	1.022964e+00	1.019599e+00	1.015785e+00	1.011965e+00	1.007936e+00	1.004064e+00	1.001435e+00	1.000342e+00	1.000060e+00	1.000009e+00	1.000001e+00	1.000000e+00	1.000000e+00	1.000000e+00	1.000000e+00	1.000000e+00	1.000000e+00	1.000000e+00	9.960815e-01	9.960635e-01	9.960671e-01	9.960421e-01	9.960071e-01	9.959642e-01	9.959150e-01	9.958552e-01	9.957810e-01	9.956954e-01	9.955947e-01	9.954763e-01	9.953387e-01	9.951789e-01	9.949956e-01	9.947887e-01	9.945524e-01	9.942625e-01	9.938786e-01	9.933200e-01	9.925009e-01	9.913370e-01	9.897980e-01	9.880105e-01	9.864431e-01	9.855954e-01	9.853908e-01	9.855019e-01	9.858083e-01	9.864151e-01	9.875139e-01	9.893313e-01	9.919588e-01	9.952981e-01	9.992402e-01	1.003774e+00	1.008800e+00	1.013809e+00	1.017957e+00	1.020453e+00	1.021177e+00	1.021085e+00	1.020323e+00	1.018274e+00	1.015430e+00	1.012606e+00	1.009674e+00	1.006158e+00	1.002298e+00	9.992689e-01	9.976944e-01	9.970837e-01	9.968395e-01	9.966950e-01	9.965610e-01	9.964012e-01	9.961957e-01	9.959255e-01	9.955584e-01	9.950356e-01	9.942689e-01	9.931653e-01	9.916763e-01	9.898939e-01	9.882068e-01	9.871751e-01	9.868842e-01	9.869334e-01	9.871898e-01	9.877381e-01	9.887566e-01	9.904897e-01	9.930772e-01	9.964340e-01	1.000405e+00	1.004941e+00	1.009973e+00	1.015044e+00	1.019342e+00	1.022188e+00	1.023203e+00	1.023179e+00	1.022581e+00	1.020775e+00	1.018084e+00	1.015325e+00	1.012441e+00	1.008917e+00	1.004954e+00	1.001889e+00	1.000479e+00	1.000088e+00	1.000013e+00	1.000002e+00	1.000000e+00	1.000000e+00	1.000000e+00	1.000000e+00	1.000000e+00	1.000000e+00	1.000000e+00	9.960052e-01	9.959843e-01	9.959868e-01	9.959616e-01	9.959250e-01	9.958799e-01	9.958275e-01	9.957646e-01	9.956860e-01	9.955947e-01	9.954875e-01	9.953607e-01	9.952129e-01	9.950424e-01	9.948484e-01	9.946265e-01	9.943644e-01	9.940282e-01	9.935514e-01	9.928506e-01	9.918261e-01	9.903900e-01	9.886023e-01	9.868928e-01	9.859043e-01	9.856863e-01	9.857649e-01	9.860830e-01	9.867078e-01	9.877360e-01	9.893056e-01	9.915125e-01	9.943148e-01	9.976153e-01	1.001383e+00	1.005614e+00	1.010033e+00	1.013974e+00	1.016871e+00	1.018384e+00	1.018834e+00	1.018676e+00	1.017903e+00	1.016223e+00	1.014240e+00	1.012374e+00	1.010162e+00	1.007008e+00	1.003072e+00	9.996875e-01	9.978077e-01	9.970467e-01	9.967424e-01	9.965721e-01	9.964252e-01	9.962575e-01	9.960395e-01	9.957372e-01	9.952988e-01	9.946442e-01	9.936697e-01	9.922865e-01	9.905260e-01	9.887227e-01	9.875446e-01	9.872103e-01	9.872229e-01	9.874857e-01	9.880542e-01	9.890116e-01	9.904994e-01	9.926579e-01	9.954837e-01	9.988528e-01	1.002674e+00	1.006921e+00	1.011349e+00	1.015399e+00	1.018461e+00	1.020187e+00	1.020881e+00	1.020811e+00	1.020212e+00	1.018729e+00	1.016846e+00	1.015039e+00	1.012913e+00	1.009817e+00	1.005817e+00	1.002369e+00	1.000637e+00	1.000123e+00	1.000019e+00	1.000003e+00	1.000000e+00	1.000000e+00	1.000000e+00	1.000000e+00	1.000000e+00	1.000000e+00	1.000000e+00	9.959178e-01	9.958937e-01	9.958956e-01	9.958700e-01	9.958317e-01	9.957836e-01	9.957263e-01	9.956587e-01	9.955747e-01	9.954763e-01	9.953607e-01	9.952239e-01	9.950654e-01	9.948843e-01	9.946780e-01	9.944357e-01	9.941293e-01	9.937149e-01	9.931072e-01	9.922050e-01	9.908905e-01	9.891342e-01	9.872882e-01	9.861488e-01	9.858854e-01	9.859251e-01	9.862044e-01	9.868281e-01	9.878699e-01	9.893789e-01	9.914068e-01	9.939261e-01	9.968232e-01	1.000040e+00	1.003603e+00	1.007383e+00	1.010949e+00	1.013712e+00	1.015313e+00	1.015973e+00	1.016195e+00	1.016068e+00	1.015547e+00	1.014498e+00	1.013378e+00	1.012265e+00	1.010621e+00	1.007752e+00	1.003761e+00	1.000081e+00	9.979189e-01	9.970039e-01	9.966332e-01	9.964333e-01	9.962701e-01	9.960880e-01	9.958452e-01	9.954878e-01	9.949371e-01	9.940832e-01	9.928111e-01	9.910865e-01	9.891913e-01	9.878613e-01	9.874420e-01	9.874214e-01	9.876347e-01	9.881964e-01	9.891714e-01	9.905992e-01	9.925601e-01	9.950822e-01	9.980687e-01	1.001403e+00	1.005035e+00	1.008835e+00	1.012437e+00	1.015271e+00	1.017079e+00	1.017869e+00	1.018235e+00	1.018265e+00	1.017886e+00	1.016998e+00	1.015951e+00	1.014902e+00	1.013369e+00	1.010622e+00	1.006611e+00	1.002847e+00	1.000810e+00	1.000163e+00	1.000027e+00	1.000004e+00	1.000001e+00	1.000000e+00	1.000000e+00	1.000000e+00	1.000000e+00	1.000000e+00	1.000000e+00	9.958156e-01	9.957888e-01	9.957902e-01	9.957641e-01	9.957238e-01	9.956726e-01	9.956100e-01	9.955368e-01	9.954463e-01	9.953387e-01	9.952129e-01	9.950654e-01	9.948958e-01	9.947027e-01	9.944767e-01	9.941970e-01	9.938231e-01	9.932862e-01	9.924847e-01	9.912841e-01	9.895928e-01	9.876664e-01	9.863701e-01	9.860240e-01	9.860392e-01	9.862467e-01	9.868081e-01	9.878419e-01	9.893668e-01	9.913654e-01	9.937844e-01	9.965125e-01	9.994383e-01	1.002538e+00	1.005812e+00	1.008942e+00	1.011286e+00	1.012794e+00	1.013258e+00	1.013311e+00	1.013276e+00	1.013396e+00	1.013449e+00	1.013184e+00	1.012826e+00	1.012277e+00	1.011032e+00	1.008369e+00	1.004339e+00	1.000428e+00	9.980197e-01	9.969535e-01	9.965115e-01	9.962778e-01	9.960935e-01	9.958862e-01	9.955953e-01	9.951390e-01	9.944013e-01	9.932418e-01	9.915725e-01	9.896224e-01	9.881591e-01	9.876304e-01	9.875823e-01	9.877258e-01	9.882129e-01	9.891693e-01	9.906100e-01	9.925296e-01	9.949207e-01	9.977157e-01	1.000788e+00	1.004039e+00	1.007400e+00	1.010559e+00	1.012966e+00	1.014571e+00	1.015173e+00	1.015307e+00	1.015348e+00	1.015552e+00	1.015837e+00	1.015674e+00	1.015388e+00	1.014907e+00	1.013799e+00	1.011313e+00	1.007310e+00	1.003303e+00	1.000991e+00	1.000210e+00	1.000036e+00	1.000005e+00	1.000001e+00	1.000000e+00	1.000000e+00	1.000000e+00	1.000000e+00	1.000000e+00	1.000000e+00	9.956978e-01	9.956682e-01	9.956691e-01	9.956416e-01	9.955987e-01	9.955437e-01	9.954752e-01	9.953956e-01	9.952975e-01	9.951789e-01	9.950424e-01	9.948843e-01	9.947027e-01	9.944905e-01	9.942304e-01	9.938871e-01	9.934024e-01	9.926785e-01	9.915763e-01	9.899628e-01	9.880119e-01	9.865712e-01	9.861264e-01	9.861252e-01	9.862750e-01	9.867293e-01	9.876862e-01	9.892064e-01	9.912370e-01	9.936781e-01	9.963866e-01	9.992260e-01	1.002146e+00	1.005132e+00	1.007922e+00	1.009957e+00	1.011055e+00	1.011084e+00	1.010753e+00	1.010440e+00	1.010297e+00	1.010696e+00	1.011749e+00	1.012477e+00	1.012541e+00	1.012335e+00	1.011355e+00	1.008834e+00	1.004787e+00	1.000715e+00	9.981020e-01	9.968927e-01	9.963761e-01	9.961018e-01	9.958846e-01	9.956306e-01	9.952496e-01	9.946164e-01	9.935688e-01	9.919708e-01	9.900057e-01	9.884379e-01	9.877990e-01	9.877198e-01	9.878068e-01	9.881853e-01	9.890557e-01	9.904799e-01	9.924181e-01	9.948055e-01	9.975468e-01	1.000518e+00	1.003627e+00	1.006781e+00	1.009681e+00	1.011793e+00	1.012891e+00	1.013057e+00	1.012782e+00	1.012516e+00	1.012399e+00	1.012852e+00	1.014073e+00	1.015019e+00	1.015122e+00	1.014985e+00	1.014159e+00	1.011871e+00	1.007898e+00	1.003720e+00	1.001173e+00	1.000260e+00	1.000046e+00	1.000007e+00	1.000001e+00	1.000000e+00	1.000000e+00	1.000000e+00	1.000000e+00	1.000000e+00	1.000000e+00	9.955616e-01	9.955288e-01	9.955291e-01	9.954992e-01	9.954530e-01	9.953931e-01	9.953185e-01	9.952322e-01	9.951259e-01	9.949956e-01	9.948484e-01	9.946780e-01	9.944767e-01	9.942304e-01	9.939090e-01	9.934605e-01	9.927955e-01	9.917725e-01	9.902349e-01	9.882990e-01	9.867479e-01	9.862008e-01	9.861796e-01	9.862992e-01	9.866548e-01	9.874861e-01	9.889335e-01	9.909690e-01	9.934688e-01	9.962577e-01	9.991585e-01	1.002094e+00	1.005047e+00	1.007731e+00	1.009464e+00	1.010036e+00	1.009936e+00	1.008974e+00	1.007831e+00	1.007361e+00	1.007328e+00	1.008390e+00	1.010589e+00	1.012186e+00	1.012472e+00	1.012411e+00	1.011574e+00	1.009146e+00	1.005106e+00	1.000931e+00	9.981587e-01	9.968184e-01	9.962218e-01	9.958948e-01	9.956218e-01	9.952775e-01	9.947247e-01	9.937794e-01	9.922638e-01	9.903172e-01	9.886783e-01	9.879564e-01	9.878481e-01	9.878972e-01	9.881717e-01	9.889067e-01	9.902453e-01	9.921753e-01	9.946012e-01	9.973879e-01	1.000390e+00	1.003510e+00	1.006674e+00	1.009564e+00	1.011435e+00	1.012022e+00	1.012002e+00	1.011119e+00	1.009970e+00	1.009485e+00	1.009442e+00	1.010521e+00	1.012893e+00	1.014745e+00	1.015130e+00	1.015116e+00	1.014454e+00	1.012295e+00	1.008371e+00	1.004089e+00	1.001350e+00	1.000313e+00	1.000056e+00	1.000009e+00	1.000001e+00	1.000000e+00	1.000000e+00	1.000000e+00	1.000000e+00	1.000000e+00	1.000000e+00	9.954039e-01	9.953671e-01	9.953677e-01	9.953346e-01	9.952850e-01	9.952198e-01	9.951386e-01	9.950444e-01	9.949317e-01	9.947887e-01	9.946265e-01	9.944357e-01	9.941970e-01	9.938871e-01	9.934605e-01	9.928355e-01	9.918735e-01	9.904024e-01	9.884970