# vtk DataFile Version 3.0
vtk output
ASCII
DATASET STRUCTURED_GRID
DIMENSIONS 101 101 1
POINTS 10201 double
0.000000e+00	0.000000e+00	0.0	1.000000e-02	0.000000e+00	0.0	2.000000e-02	0.000000e+00	0.0	3.000000e-02	0.000000e+00	0.0	4.000000e-02	0.000000e+00	0.0	5.000000e-02	0.000000e+00	0.0	6.000000e-02	0.000000e+00	0.0	7.000000e-02	0.000000e+00	0.0	8.000000e-02	0.000000e+00	0.0	9.000000e-02	0.000000e+00	0.0	1.000000e-01	0.000000e+00	0.0	1.100000e-01	0.000000e+00	0.0	1.200000e-01	0.000000e+00	0.0	1.300000e-01	0.000000e+00	0.0	1.400000e-01	0.000000e+00	0.0	1.500000e-01	0.000000e+00	0.0	1.600000e-01	0.000000e+00	0.0	1.700000e-01	0.000000e+00	0.0	1.800000e-01	0.000000e+00	0.0	1.900000e-01	0.000000e+00	0.0	2.000000e-01	0.000000e+00	0.0	2.100000e-01	0.000000e+00	0.0	2.200000e-01	0.000000e+00	0.0	2.300000e-01	0.000000e+00	0.0	2.400000e-01	0.000000e+00	0.0	2.500000e-01	0.000000e+00	0.0	2.600000e-01	0.000000e+00	0.0	2.700000e-01	0.000000e+00	0.0	2.800000e-01	0.000000e+00	0.0	2.900000e-01	0.000000e+00	0.0	3.000000e-01	0.000000e+00	0.0	3.100000e-01	0.000000e+00	0.0	3.200000e-01	0.000000e+00	0.0	3.300000e-01	0.000000e+00	0.0	3.400000e-01	0.000000e+00	0.0	3.500000e-01	0.000000e+00	0.0	3.600000e-01	0.000000e+00	0.0	3.700000e-01	0.000000e+00	0.0	3.800000e-01	0.000000e+00	0.0	3.900000e-01	0.000000e+00	0.0	4.000000e-01	0.000000e+00	0.0	4.100000e-01	0.000000e+00	0.0	4.200000e-01	0.000000e+00	0.0	4.300000e-01	0.000000e+00	0.0	4.400000e-01	0.000000e+00	0.0	4.500000e-01	0.000000e+00	0.0	4.600000e-01	0.000000e+00	0.0	4.700000e-01	0.000000e+00	0.0	4.800000e-01	0.000000e+00	0.0	4.900000e-01	0.000000e+00	0.0	5.000000e-01	0.000000e+00	0.0	5.100000e-01	0.000000e+00	0.0	5.200000e-01	0.000000e+00	0.0	5.300000e-01	0.000000e+00	0.0	5.400000e-01	0.000000e+00	0.0	5.500000e-01	0.000000e+00	0.0	5.600000e-01	0.000000e+00	0.0	5.700000e-01	0.000000e+00	0.0	5.800000e-01	0.000000e+00	0.0	5.900000e-01	0.000000e+00	0.0	6.000000e-01	0.000000e+00	0.0	6.100000e-01	0.000000e+00	0.0	6.200000e-01	0.000000e+00	0.0	6.300000e-01	0.000000e+00	0.0	6.400000e-01	0.000000e+00	0.0	6.500000e-01	0.000000e+00	0.0	6.600000e-01	0.000000e+00	0.0	6.700000e-01	0.000000e+00	0.0	6.800000e-01	0.000000e+00	0.0	6.900000e-01	0.000000e+00	0.0	7.000000e-01	0.000000e+00	0.0	7.100000e-01	0.000000e+00	0.0	7.200000e-01	0.000000e+00	0.0	7.300000e-01	0.000000e+00	0.0	7.400000e-01	0.000000e+00	0.0	7.500000e-01	0.000000e+00	0.0	7.600000e-01	0.000000e+00	0.0	7.700000e-01	0.000000e+00	0.0	7.800000e-01	0.000000e+00	0.0	7.900000e-01	0.000000e+00	0.0	8.000000e-01	0.000000e+00	0.0	8.100000e-01	0.000000e+00	0.0	8.200000e-01	0.000000e+00	0.0	8.300000e-01	0.000000e+00	0.0	8.400000e-01	0.000000e+00	0.0	8.500000e-01	0.000000e+00	0.0	8.600000e-01	0.000000e+00	0.0	8.700000e-01	0.000000e+00	0.0	8.800000e-01	0.000000e+00	0.0	8.900000e-01	0.000000e+00	0.0	9.000000e-01	0.000000e+00	0.0	9.100000e-01	0.000000e+00	0.0	9.200000e-01	0.000000e+00	0.0	9.300000e-01	0.000000e+00	0.0	9.400000e-01	0.000000e+00	0.0	9.500000e-01	0.000000e+00	0.0	9.600000e-01	0.000000e+00	0.0	9.700000e-01	0.000000e+00	0.0	9.800000e-01	0.000000e+00	0.0	9.900000e-01	0.000000e+00	0.0	1.000000e+00	0.000000e+00	0.0	0.000000e+00	1.000000e-02	0.0	1.000000e-02	1.000000e-02	0.0	2.000000e-02	1.000000e-02	0.0	3.000000e-02	1.000000e-02	0.0	4.000000e-02	1.000000e-02	0.0	5.000000e-02	1.000000e-02	0.0	6.000000e-02	1.000000e-02	0.0	7.000000e-02	1.000000e-02	0.0	8.000000e-02	1.000000e-02	0.0	9.000000e-02	1.000000e-02	0.0	1.000000e-01	1.000000e-02	0.0	1.100000e-01	1.000000e-02	0.0	1.200000e-01	1.000000e-02	0.0	1.300000e-01	1.000000e-02	0.0	1.400000e-01	1.000000e-02	0.0	1.500000e-01	1.000000e-02	0.0	1.600000e-01	1.000000e-02	0.0	1.700000e-01	1.000000e-02	0.0	1.800000e-01	1.000000e-02	0.0	1.900000e-01	1.000000e-02	0.0	2.000000e-01	1.000000e-02	0.0	2.100000e-01	1.000000e-02	0.0	2.200000e-01	1.000000e-02	0.0	2.300000e-01	1.000000e-02	0.0	2.400000e-01	1.000000e-02	0.0	2.500000e-01	1.000000e-02	0.0	2.600000e-01	1.000000e-02	0.0	2.700000e-01	1.000000e-02	0.0	2.800000e-01	1.000000e-02	0.0	2.900000e-01	1.000000e-02	0.0	3.000000e-01	1.000000e-02	0.0	3.100000e-01	1.000000e-02	0.0	3.200000e-01	1.000000e-02	0.0	3.300000e-01	1.000000e-02	0.0	3.400000e-01	1.000000e-02	0.0	3.500000e-01	1.000000e-02	0.0	3.600000e-01	1.000000e-02	0.0	3.700000e-01	1.000000e-02	0.0	3.800000e-01	1.000000e-02	0.0	3.900000e-01	1.000000e-02	0.0	4.000000e-01	1.000000e-02	0.0	4.100000e-01	1.000000e-02	0.0	4.200000e-01	1.000000e-02	0.0	4.300000e-01	1.000000e-02	0.0	4.400000e-01	1.000000e-02	0.0	4.500000e-01	1.000000e-02	0.0	4.600000e-01	1.000000e-02	0.0	4.700000e-01	1.000000e-02	0.0	4.800000e-01	1.000000e-02	0.0	4.900000e-01	1.000000e-02	0.0	5.000000e-01	1.000000e-02	0.0	5.100000e-01	1.000000e-02	0.0	5.200000e-01	1.000000e-02	0.0	5.300000e-01	1.000000e-02	0.0	5.400000e-01	1.000000e-02	0.0	5.500000e-01	1.000000e-02	0.0	5.600000e-01	1.000000e-02	0.0	5.700000e-01	1.000000e-02	0.0	5.800000e-01	1.000000e-02	0.0	5.900000e-01	1.000000e-02	0.0	6.000000e-01	1.000000e-02	0.0	6.100000e-01	1.000000e-02	0.0	6.200000e-01	1.000000e-02	0.0	6.300000e-01	1.000000e-02	0.0	6.400000e-01	1.000000e-02	0.0	6.500000e-01	1.000000e-02	0.0	6.600000e-01	1.000000e-02	0.0	6.700000e-01	1.000000e-02	0.0	6.800000e-01	1.000000e-02	0.0	6.900000e-01	1.000000e-02	0.0	7.000000e-01	1.000000e-02	0.0	7.100000e-01	1.000000e-02	0.0	7.200000e-01	1.000000e-02	0.0	7.300000e-01	1.000000e-02	0.0	7.400000e-01	1.000000e-02	0.0	7.500000e-01	1.000000e-02	0.0	7.600000e-01	1.000000e-02	0.0	7.700000e-01	1.000000e-02	0.0	7.800000e-01	1.000000e-02	0.0	7.900000e-01	1.000000e-02	0.0	8.000000e-01	1.000000e-02	0.0	8.100000e-01	1.000000e-02	0.0	8.200000e-01	1.000000e-02	0.0	8.300000e-01	1.000000e-02	0.0	8.400000e-01	1.000000e-02	0.0	8.500000e-01	1.000000e-02	0.0	8.600000e-01	1.000000e-02	0.0	8.700000e-01	1.000000e-02	0.0	8.800000e-01	1.000000e-02	0.0	8.900000e-01	1.000000e-02	0.0	9.000000e-01	1.000000e-02	0.0	9.100000e-01	1.000000e-02	0.0	9.200000e-01	1.000000e-02	0.0	9.300000e-01	1.000000e-02	0.0	9.400000e-01	1.000000e-02	0.0	9.500000e-01	1.000000e-02	0.0	9.600000e-01	1.000000e-02	0.0	9.700000e-01	1.000000e-02	0.0	9.800000e-01	1.000000e-02	0.0	9.900000e-01	1.000000e-02	0.0	1.000000e+00	1.000000e-02	0.0	0.000000e+00	2.000000e-02	0.0	1.000000e-02	2.000000e-02	0.0	2.000000e-02	2.000000e-02	0.0	3.000000e-02	2.000000e-02	0.0	4.000000e-02	2.000000e-02	0.0	5.000000e-02	2.000000e-02	0.0	6.000000e-02	2.000000e-02	0.0	7.000000e-02	2.000000e-02	0.0	8.000000e-02	2.000000e-02	0.0	9.000000e-02	2.000000e-02	0.0	1.000000e-01	2.000000e-02	0.0	1.100000e-01	2.000000e-02	0.0	1.200000e-01	2.000000e-02	0.0	1.300000e-01	2.000000e-02	0.0	1.400000e-01	2.000000e-02	0.0	1.500000e-01	2.000000e-02	0.0	1.600000e-01	2.000000e-02	0.0	1.700000e-01	2.000000e-02	0.0	1.800000e-01	2.000000e-02	0.0	1.900000e-01	2.000000e-02	0.0	2.000000e-01	2.000000e-02	0.0	2.100000e-01	2.000000e-02	0.0	2.200000e-01	2.000000e-02	0.0	2.300000e-01	2.000000e-02	0.0	2.400000e-01	2.000000e-02	0.0	2.500000e-01	2.000000e-02	0.0	2.600000e-01	2.000000e-02	0.0	2.700000e-01	2.000000e-02	0.0	2.800000e-01	2.000000e-02	0.0	2.900000e-01	2.000000e-02	0.0	3.000000e-01	2.000000e-02	0.0	3.100000e-01	2.000000e-02	0.0	3.200000e-01	2.000000e-02	0.0	3.300000e-01	2.000000e-02	0.0	3.400000e-01	2.000000e-02	0.0	3.500000e-01	2.000000e-02	0.0	3.600000e-01	2.000000e-02	0.0	3.700000e-01	2.000000e-02	0.0	3.800000e-01	2.000000e-02	0.0	3.900000e-01	2.000000e-02	0.0	4.000000e-01	2.000000e-02	0.0	4.100000e-01	2.000000e-02	0.0	4.200000e-01	2.000000e-02	0.0	4.300000e-01	2.000000e-02	0.0	4.400000e-01	2.000000e-02	0.0	4.500000e-01	2.000000e-02	0.0	4.600000e-01	2.000000e-02	0.0	4.700000e-01	2.000000e-02	0.0	4.800000e-01	2.000000e-02	0.0	4.900000e-01	2.000000e-02	0.0	5.000000e-01	2.000000e-02	0.0	5.100000e-01	2.000000e-02	0.0	5.200000e-01	2.000000e-02	0.0	5.300000e-01	2.000000e-02	0.0	5.400000e-01	2.000000e-02	0.0	5.500000e-01	2.000000e-02	0.0	5.600000e-01	2.000000e-02	0.0	5.700000e-01	2.000000e-02	0.0	5.800000e-01	2.000000e-02	0.0	5.900000e-01	2.000000e-02	0.0	6.000000e-01	2.000000e-02	0.0	6.100000e-01	2.000000e-02	0.0	6.200000e-01	2.000000e-02	0.0	6.300000e-01	2.000000e-02	0.0	6.400000e-01	2.000000e-02	0.0	6.500000e-01	2.000000e-02	0.0	6.600000e-01	2.000000e-02	0.0	6.700000e-01	2.000000e-02	0.0	6.800000e-01	2.000000e-02	0.0	6.900000e-01	2.000000e-02	0.0	7.000000e-01	2.000000e-02	0.0	7.100000e-01	2.000000e-02	0.0	7.200000e-01	2.000000e-02	0.0	7.300000e-01	2.000000e-02	0.0	7.400000e-01	2.000000e-02	0.0	7.500000e-01	2.000000e-02	0.0	7.600000e-01	2.000000e-02	0.0	7.700000e-01	2.000000e-02	0.0	7.800000e-01	2.000000e-02	0.0	7.900000e-01	2.000000e-02	0.0	8.000000e-01	2.000000e-02	0.0	8.100000e-01	2.000000e-02	0.0	8.200000e-01	2.000000e-02	0.0	8.300000e-01	2.000000e-02	0.0	8.400000e-01	2.000000e-02	0.0	8.500000e-01	2.000000e-02	0.0	8.600000e-01	2.000000e-02	0.0	8.700000e-01	2.000000e-02	0.0	8.800000e-01	2.000000e-02	0.0	8.900000e-01	2.000000e-02	0.0	9.000000e-01	2.000000e-02	0.0	9.100000e-01	2.000000e-02	0.0	9.200000e-01	2.000000e-02	0.0	9.300000e-01	2.000000e-02	0.0	9.400000e-01	2.000000e-02	0.0	9.500000e-01	2.000000e-02	0.0	9.600000e-01	2.000000e-02	0.0	9.700000e-01	2.000000e-02	0.0	9.800000e-01	2.000000e-02	0.0	9.900000e-01	2.000000e-02	0.0	1.000000e+00	2.000000e-02	0.0	0.000000e+00	3.000000e-02	0.0	1.000000e-02	3.000000e-02	0.0	2.000000e-02	3.000000e-02	0.0	3.000000e-02	3.000000e-02	0.0	4.000000e-02	3.000000e-02	0.0	5.000000e-02	3.000000e-02	0.0	6.000000e-02	3.000000e-02	0.0	7.000000e-02	3.000000e-02	0.0	8.000000e-02	3.000000e-02	0.0	9.000000e-02	3.000000e-02	0.0	1.000000e-01	3.000000e-02	0.0	1.100000e-01	3.000000e-02	0.0	1.200000e-01	3.000000e-02	0.0	1.300000e-01	3.000000e-02	0.0	1.400000e-01	3.000000e-02	0.0	1.500000e-01	3.000000e-02	0.0	1.600000e-01	3.000000e-02	0.0	1.700000e-01	3.000000e-02	0.0	1.800000e-01	3.000000e-02	0.0	1.900000e-01	3.000000e-02	0.0	2.000000e-01	3.000000e-02	0.0	2.100000e-01	3.000000e-02	0.0	2.200000e-01	3.000000e-02	0.0	2.300000e-01	3.000000e-02	0.0	2.400000e-01	3.000000e-02	0.0	2.500000e-01	3.000000e-02	0.0	2.600000e-01	3.000000
[...]
POINT_DATA 10201

SCALARS Height double 1
LOOKUP_TABLE default
9.995219e-01	9.995389e-01	9.995354e-01	9.995360e-01	9.995353e-01	9.995329e-01	9.995284e-01	9.995213e-01	9.995153e-01	9.995121e-01	9.995111e-01	9.995115e-01	9.995123e-01	9.995131e-01	9.995143e-01	9.995159e-01	9.995211e-01	9.995302e-01	9.995371e-01	9.995401e-01	9.995406e-01	9.995351e-01	9.995279e-01	9.995215e-01	9.995251e-01	9.995893e-01	9.998115e-01	1.000447e+00	1.001983e+00	1.004893e+00	1.008900e+00	1.012801e+00	1.015360e+00	1.016372e+00	1.016495e+00	1.016165e+00	1.015150e+00	1.013245e+00	1.010342e+00	1.006766e+00	1.003063e+00	9.996144e-01	9.966378e-01	9.942803e-01	9.926364e-01	9.916862e-01	9.912797e-01	9.912011e-01	9.912646e-01	9.915167e-01	9.920006e-01	9.927733e-01	9.937582e-01	9.947492e-01	9.955833e-01	9.962213e-01	9.966899e-01	9.970339e-01	9.972879e-01	9.974728e-01	9.975969e-01	9.976708e-01	9.977083e-01	9.977266e-01	9.977445e-01	9.977889e-01	9.979575e-01	9.985036e-01	9.999120e-01	1.002729e+00	1.006827e+00	1.011037e+00	1.013961e+00	1.015220e+00	1.015428e+00	1.015175e+00	1.014280e+00	1.012554e+00	1.009836e+00	1.006379e+00	1.002705e+00	9.992178e-01	9.961514e-01	9.936620e-01	9.918605e-01	9.907583e-01	9.902313e-01	9.900664e-01	9.900573e-01	9.902312e-01	9.906190e-01	9.912925e-01	9.921973e-01	9.931590e-01	9.939844e-01	9.946007e-01	9.950183e-01	9.952819e-01	9.954409e-01	9.955178e-01	9.955575e-01	9.995387e-01	9.995603e-01	9.995450e-01	9.995445e-01	9.995435e-01	9.995405e-01	9.995362e-01	9.995308e-01	9.995262e-01	9.995225e-01	9.995203e-01	9.995202e-01	9.995209e-01	9.995220e-01	9.995236e-01	9.995261e-01	9.995245e-01	9.995305e-01	9.995361e-01	9.995331e-01	9.995308e-01	9.995249e-01	9.995222e-01	9.995141e-01	9.995146e-01	9.995643e-01	9.997407e-01	1.000318e+00	1.001868e+00	1.004952e+00	1.009179e+00	1.013045e+00	1.015425e+00	1.016341e+00	1.016480e+00	1.016319e+00	1.015396e+00	1.013330e+00	1.010291e+00	1.006712e+00	1.003028e+00	9.995736e-01	9.965889e-01	9.942303e-01	9.925982e-01	9.916759e-01	9.913017e-01	9.912268e-01	9.912494e-01	9.914376e-01	9.919425e-01	9.927815e-01	9.937941e-01	9.947720e-01	9.955922e-01	9.962238e-01	9.966916e-01	9.970366e-01	9.972911e-01	9.974745e-01	9.975955e-01	9.976656e-01	9.976993e-01	9.977127e-01	9.977208e-01	9.977499e-01	9.978821e-01	9.983657e-01	9.997667e-01	1.002745e+00	1.007087e+00	1.011292e+00	1.014035e+00	1.015183e+00	1.015391e+00	1.015288e+00	1.014528e+00	1.012662e+00	1.009797e+00	1.006322e+00	1.002668e+00	9.991781e-01	9.961023e-01	9.936080e-01	9.918154e-01	9.907358e-01	9.902371e-01	9.900840e-01	9.900506e-01	9.901540e-01	9.905504e-01	9.912808e-01	9.922275e-01	9.931828e-01	9.939942e-01	9.946012e-01	9.950143e-01	9.952762e-01	9.954348e-01	9.955114e-01	9.955451e-01	9.995240e-01	9.995322e-01	9.995233e-01	9.995233e-01	9.995227e-01	9.995221e-01	9.995212e-01	9.995185e-01	9.995156e-01	9.995142e-01	9.995142e-01	9.995148e-01	9.995153e-01	9.995153e-01	9.995145e-01	9.995137e-01	9.995124e-01	9.995102e-01	9.995086e-01	9.995055e-01	9.995023e-01	9.994960e-01	9.994923e-01	9.994935e-01	9.994968e-01	9.995335e-01	9.996951e-01	1.000257e+00	1.001848e+00	1.005023e+00	1.009228e+00	1.012946e+00	1.015209e+00	1.016135e+00	1.016310e+00	1.016214e+00	1.015374e+00	1.013225e+00	1.010147e+00	1.006622e+00	1.003004e+00	9.995901e-01	9.966215e-01	9.942842e-01	9.926651e-01	9.917311e-01	9.913254e-01	9.912205e-01	9.912281e-01	9.913823e-01	9.919131e-01	9.927645e-01	9.937421e-01	9.946908e-01	9.955029e-01	9.961435e-01	9.966251e-01	9.969821e-01	9.972440e-01	9.974296e-01	9.975516e-01	9.976235e-01	9.976608e-01	9.976795e-01	9.976937e-01	9.977247e-01	9.978464e-01	9.983148e-01	9.997510e-01	1.002827e+00	1.007166e+00	1.011217e+00	1.013820e+00	1.014958e+00	1.015225e+00	1.015167e+00	1.014500e+00	1.012575e+00	1.009651e+00	1.006220e+00	1.002634e+00	9.991858e-01	9.961247e-01	9.936526e-01	9.918767e-01	9.907909e-01	9.902683e-01	9.900888e-01	9.900445e-01	9.901100e-01	9.905190e-01	9.912742e-01	9.921900e-01	9.931048e-01	9.939005e-01	9.945116e-01	9.949385e-01	9.952145e-01	9.953811e-01	9.954579e-01	9.955051e-01	9.995206e-01	9.995280e-01	9.995198e-01	9.995194e-01	9.995194e-01	9.995201e-01	9.995200e-01	9.995180e-01	9.995157e-01	9.995149e-01	9.995151e-01	9.995158e-01	9.995164e-01	9.995165e-01	9.995156e-01	9.995144e-01	9.995119e-01	9.995134e-01	9.995129e-01	9.995116e-01	9.995086e-01	9.995018e-01	9.994954e-01	9.994937e-01	9.994918e-01	9.995228e-01	9.996718e-01	1.000217e+00	1.001822e+00	1.005054e+00	1.009285e+00	1.012951e+00	1.015140e+00	1.016023e+00	1.016190e+00	1.016115e+00	1.015378e+00	1.013275e+00	1.010125e+00	1.006594e+00	1.003018e+00	9.996394e-01	9.966855e-01	9.943496e-01	9.927239e-01	9.917786e-01	9.913577e-01	9.912468e-01	9.912494e-01	9.913685e-01	9.918532e-01	9.927185e-01	9.937252e-01	9.946782e-01	9.954855e-01	9.961234e-01	9.966044e-01	9.969626e-01	9.972254e-01	9.974119e-01	9.975353e-01	9.976088e-01	9.976471e-01	9.976662e-01	9.976795e-01	9.977068e-01	9.978186e-01	9.982765e-01	9.997271e-01	1.002859e+00	1.007229e+00	1.011233e+00	1.013755e+00	1.014839e+00	1.015091e+00	1.015043e+00	1.014476e+00	1.012622e+00	1.009636e+00	1.006190e+00	1.002641e+00	9.992290e-01	9.961857e-01	9.937175e-01	9.919361e-01	9.908394e-01	9.902993e-01	9.901122e-01	9.900655e-01	9.901039e-01	9.904635e-01	9.912233e-01	9.921690e-01	9.930934e-01	9.938809e-01	9.944849e-01	9.949093e-01	9.951862e-01	9.953553e-01	9.954347e-01	9.954839e-01	9.995184e-01	9.995259e-01	9.995188e-01	9.995190e-01	9.995190e-01	9.995195e-01	9.995194e-01	9.995178e-01	9.995157e-01	9.995147e-01	9.995146e-01	9.995148e-01	9.995145e-01	9.995141e-01	9.995132e-01	9.995117e-01	9.995094e-01	9.995107e-01	9.995090e-01	9.995074e-01	9.995044e-01	9.994978e-01	9.994915e-01	9.994902e-01	9.994878e-01	9.995149e-01	9.996527e-01	1.000181e+00	1.001785e+00	1.005050e+00	1.009309e+00	1.012940e+00	1.015067e+00	1.015916e+00	1.016078e+00	1.016008e+00	1.015347e+00	1.013345e+00	1.010179e+00	1.006609e+00	1.003058e+00	9.997165e-01	9.967840e-01	9.944467e-01	9.928071e-01	9.918447e-01	9.914092e-01	9.912802e-01	9.912725e-01	9.913652e-01	9.918018e-01	9.926583e-01	9.936879e-01	9.946539e-01	9.954655e-01	9.961041e-01	9.965866e-01	9.969456e-01	9.972087e-01	9.973964e-01	9.975217e-01	9.975969e-01	9.976363e-01	9.976554e-01	9.976680e-01	9.976931e-01	9.977990e-01	9.982482e-01	9.997033e-01	1.002866e+00	1.007254e+00	1.011231e+00	1.013691e+00	1.014738e+00	1.014976e+00	1.014929e+00	1.014426e+00	1.012681e+00	1.009699e+00	1.006207e+00	1.002675e+00	9.992992e-01	9.962795e-01	9.938113e-01	9.920180e-01	9.909057e-01	9.903509e-01	9.901438e-01	9.900870e-01	9.901068e-01	9.904197e-01	9.911622e-01	9.921273e-01	9.930651e-01	9.938549e-01	9.944583e-01	9.948823e-01	9.951595e-01	9.953300e-01	9.954109e-01	9.954619e-01	9.995192e-01	9.995271e-01	9.995202e-01	9.995211e-01	9.995211e-01	9.995218e-01	9.995214e-01	9.995195e-01	9.995174e-01	9.995163e-01	9.995160e-01	9.995158e-01	9.995149e-01	9.995138e-01	9.995128e-01	9.995116e-01	9.995101e-01	9.995115e-01	9.995096e-01	9.995079e-01	9.995052e-01	9.994994e-01	9.994935e-01	9.994917e-01	9.994889e-01	9.995122e-01	9.996406e-01	1.000157e+00	1.001749e+00	1.005021e+00	1.009279e+00	1.012905e+00	1.015013e+00	1.015834e+00	1.015987e+00	1.015921e+00	1.015320e+00	1.013431e+00	1.010305e+00	1.006697e+00	1.003136e+00	9.998215e-01	9.969126e-01	9.945752e-01	9.929191e-01	9.919316e-01	9.914731e-01	9.913350e-01	9.913239e-01	9.913987e-01	9.917850e-01	9.926063e-01	9.936421e-01	9.946226e-01	9.954408e-01	9.960827e-01	9.965694e-01	9.969320e-01	9.971978e-01	9.973876e-01	9.975143e-01	9.975902e-01	9.976297e-01	9.976484e-01	9.976601e-01	9.976838e-01	9.977867e-01	9.982296e-01	9.996813e-01	1.002851e+00	1.007237e+00	1.011186e+00	1.013622e+00	1.014648e+00	1.014879e+00	1.014834e+00	1.014380e+00	1.012749e+00	1.009826e+00	1.006300e+00	1.002747e+00	9.993968e-01	9.964025e-01	9.939360e-01	9.921278e-01	9.909928e-01	9.904165e-01	9.901996e-01	9.901381e-01	9.901467e-01	9.904156e-01	9.911142e-01	9.920771e-01	9.930280e-01	9.938254e-01	9.944317e-01	9.948581e-01	9.951382e-01	9.953122e-01	9.953961e-01	9.954485e-01	9.995212e-01	9.995312e-01	9.995225e-01	9.995235e-01	9.995237e-01	9.995237e-01	9.995236e-01	9.995221e-01	9.995199e-01	9.995185e-01	9.995182e-01	9.995181e-01	9.995174e-01	9.995161e-01	9.995146e-01	9.995133e-01	9.995115e-01	9.995127e-01	9.995105e-01	9.995087e-01	9.995061e-01	9.995010e-01	9.994961e-01	9.994939e-01	9.994912e-01	9.995137e-01	9.996351e-01	1.000140e+00	1.001715e+00	1.004973e+00	1.009220e+00	1.012823e+00	1.014920e+00	1.015749e+00	1.015910e+00	1.015852e+00	1.015303e+00	1.013517e+00	1.010458e+00	1.006838e+00	1.003255e+00	9.999581e-01	9.970680e-01	9.947320e-01	9.930605e-01	9.920461e-01	9.915589e-01	9.914029e-01	9.913884e-01	9.914507e-01	9.917858e-01	9.925564e-01	9.935817e-01	9.945759e-01	9.954037e-01	9.960522e-01	9.965468e-01	9.969169e-01	9.971879e-01	9.973803e-01	9.975076e-01	9.975834e-01	9.976227e-01	9.976411e-01	9.976524e-01	9.976762e-01	9.977793e-01	9.982209e-01	9.996638e-01	1.002815e+00	1.007180e+00	1.011105e+00	1.013525e+00	1.014547e+00	1.014784e+00	1.014747e+00	1.014339e+00	1.012814e+00	1.009973e+00	1.006442e+00	1.002865e+00	9.995255e-01	9.965504e-01	9.940883e-01	9.922662e-01	9.911061e-01	9.905021e-01	9.902674e-01	9.902034e-01	9.902035e-01	9.904286e-01	9.910716e-01	9.920144e-01	9.929739e-01	9.937826e-01	9.943959e-01	9.948286e-01	9.951149e-01	9.952947e-01	9.953819e-01	9.954363e-01	9.995207e-01	9.995307e-01	9.995234e-01	9.995247e-01	9.995252e-01	9.995253e-01	9.995243e-01	9.995226e-01	9.995214e-01	9.995201e-01	9.995196e-01	9.995198e-01	9.995197e-01	9.995188e-01	9.995174e-01	9.995158e-01	9.995142e-01	9.995138e-01	9.995123e-01	9.995092e-01	9.995066e-01	9.995018e-01	9.994988e-01	9.994953e-01	9.994935e-01	9.995174e-01	9.996360e-01	1.000130e+00	1.001683e+00	1.004905e+00	1.009121e+00	1.012706e+00	1.014802e+00	1.015633e+00	1.015802e+00	1.015755e+00	1.015261e+00	1.013586e+00	1.010619e+00	1.007018e+00	1.003423e+00	1.000124e+00	9.972442e-01	9.949068e-01	9.932152e-01	9.921727e-01	9.916590e-01	9.914852e-01	9.914646e-01	9.915066e-01	9.917892e-01	9.925000e-01	9.935061e-01	9.945101e-01	9.953512e-01	9.960101e-01	9.965150e-01	9.968949e-01	9.971737e-01	9.973694e-01	9.974977e-01	9.975737e-01	9.976129e-01	9.976315e-01	9.976434e-01	9.976687e-01	9.977753e-01	9.982209e-01	9.996540e-01	1.002766e+00	1.007080e+00	1.010979e+00	1.013397e+00	1.014428e+00	1.014671e+00	1.014639e+00	1.014275e+00	1.012858e+00	1.010119e+00	1.006621e+00	1.003030e+00	9.996837e-01	9.967195e-01	9.942599e-01	9.924206e-01	9.912320e-01	9.906011e-01	9.903471e-01	9.902750e-01	9.902621e-01	9.904438e-01	9.910254e-01	9.919362e-01	9.929008e-01	9.937221e-01	9.943457e-01	9.947876e-01	9.950828e-01	9.952706e-01	9.953612e-01	9.954182e-01	9.995181e-01	9.995304e-01	9.995234e-01	9.995252e-01	9.995253e-01	9.995253e-01	9.995245e-01	9.995228e-01	9.995209e-01	9.995202e-01	9.995196e-01	9.995198e-01	9.995201e-01	9.995197e-01	9.995185e-01	9.995168e-01	9.995145e-01	9.995134e-01	9.995118e-01	9.995091e-01	9.995061e-01	9.995024e-01	9.994985e-01	9.994944e-01	9.994954e-01	9.995185e-01	9.996371e-01	1.000125e+00	1.001654e+00	1.004824e+00	1.008984e+00	1.012546e+00	1.014647e+00	1.015495e+00	1.015675e+00	1.015634e+00	1.015187e+00	1.013632e+00	1.010780e+00	1.007224e+00	1.003624e+00	1.000318e+00	9.974424e-01	9.950979e-01	9.933793e-01	9.923017e-01	9.917573e-01	9.915620e-01	9.915308e-01	9.915597e-01	9.917885e-01	9.924310e-01	9.934055e-01	9.944171e-01	9.952776e-01	9.959531e-01	9.964715e-01	9.968634e-01	9.971506e-01	9.973510e-01	9.974819e-01	9.975588e-01	9.975987e-01	9.976182e-01	9.976316e-01	9.976600e-01	9.977733e-01	9.982274e-01	9.996518e-01	1.002709e+00	1.006947e+00	1.010806e+00	1.013227e+00	1.014278e+00	1.014537e+00	1.014512e+00	1.014183e+00	1.012879e+00	1.010261e+00	1.006818e+00	1.003228e+00	9.998729e-01	9.969115e-01	9.944487e-01	9.925867e-01	9.913635e-01	9.907001e-01	9.904228e-01	9.903394e-01	9.903169e-01	9.904549e-01	9.909692e-01	9.918379e-01	9.927990e-01	9.936364e-01	9.942769e-01	9.947328e-01	9.950396e-01	9.952352e-01	9.953300e-01	9.953905e-01	9.995162e-01	9.995290e-01	9.995229e-01	9.995250e-01	9.995248e-01	9.995243e-01	9.995233e-01	9.995218e-01	9.995203e-01	9.995194e-01	9.995193e-01	9.995189e-01	9.995185e-01	9.995182e-01	9.995173e-01	9.995157e-01	9.995131e-01	9.995110e-01	9.995085e-01	9.995056e-01	9.995027e-01	9.994992e-01	9.994959e-01	9.994934e-01	9.994948e-01	9.995186e-01	9.996373e-01	1.000122e+00	1.001628e+00	1.004735e+00	1.008819e+00	1.012346e+00	1.014456e+00	1.015326e+00	1.015523e+00	1.015493e+00	1.015099e+00	1.013663e+00	1.010941e+00	1.007452e+00	1.003860e+00	1.000546e+00	9.976659e-01	9.953104e-01	9.935608e-01	9.924396e-01	9.918558e-01	9.916337e-01	9.915918e-01	9.916089e-01	9.917844e-01	9.923507e-01	9.932847e-01	9.943041e-01	9.951900e-01	9.958871e-01	9.964199e-01	9.968226e-01	9.971189e-01	9.973262e-01	9.974605e-01	9.975391e-01	9.975801e-01	9.976008e-01	9.976162e-01	9.976490e-01	9.977715e-01	9.982370e-01	9.996529e-01	1.002647e+00	1.006791e+00	1.010596e+00	1.013018e+00	1.014092e+00	1.014371e+00	1.014356e+00	1.014072e+00	1.012881e+00	1.010398e+00	1.007035e+00	1.003459e+00	1.000095e+00	9.971290e-01	9.946587e-01	9.927706e-01	9.915061e-01	9.908018e-01	9.904952e-01	9.903961e-01	9.903651e-01	9.904600e-01	9.909026e-01	9.917207e-01	9.926756e-01	9.935321e-01	9.941944e-01	9.946666e-01	9.949853e-01	9.951905e-01	9.952897e-01	9.953552e-01	9.995154e-01	9.995268e-01	9.995212e-01	9.995235e-01	9.995231e-01	9.995222e-01	9.995211e-01	9.995200e-01	9.995191e-01	9.995188e-01	9.995185e-01	9.995188e-01	9.995181e-01	9.995168e-01	9.995155e-01	9.995136e-01	9.995107e-01	9.995083e-01	9.995053e-01	9.995028e-01	9.995001e-01	9.994974e-01	9.994946e-01	9.994920e-01	9.994937e-01	9.995183e-01	9.996383e-01	1.000123e+00	1.001605e+00	1.004641e+00	1.008637e+00	1.012119e+00	1.014236e+00	1.015131e+00	1.015347e+00	1.015329e+00	1.014996e+00	1.013684e+00	1.011102e+00	1.007699e+00	1.004129e+00	1.000808e+00	9.979185e-01	9.955496e-01	9.937679e-01	9.925966e-01	9.919641e-01	9.917093e-01	9.916509e-01	9.916596e-01	9.917860e-01	9.922681e-01	9.931487e-01	9.941711e-01	9.950860e-01	9.958109e-01	9.963627e-01	9.967769e-01	9.970816e-01	9.972949e-01	9.974332e-01	9.975140e-01	9.975566e-01	9.975790e-01	9.975973e-01	9.976357e-01	9.977690e-01	9.982480e-01	9.996541e-01	1.002578e+00	1.006618e+00	1.010361e+00	1.012782e+00	1.013881e+00	1.014179e+00	1.014174e+00	1.013937e+00	1.012865e+00	1.010533e+00	1.007267e+00	1.003721e+00	1.000351e+00	9.973752e-01	9.948938e-01	9.929790e-01	9.916684e-01	9.909147e-01	9.905723e-01	9.904539e-01	9.904132e-01	9.904669e-01	9.908328e-01	9.915905e-01	9.925337e-01	9.934104e-01	9.940986e-01	9.945908e-01	9.949230e-01	9.951375e-01	9.952423e-01	9.953136e-01	9.995150e-01	9.995259e-01	9.995197e-01	9.995219e-01	9.995210e-01	9.995198e-01	9.995187e-01	9.995180e-01	9.995178e-01	9.995177e-01	9.995181e-01	9.995177e-01	9.995177e-01	9.995166e-01	9.995143e-01	9.995120e-01	9.995087e-01	9.995059e-01	9.995026e-01	9.994996e-01	9.994969e-01	9.994946e-01	9.994925e-01	9.994904e-01	9.994931e-01	9.995192e-01	9.996417e-01	1.000127e+00	1.001584e+00	1.004541e+00	1.008437e+00	1.011871e+00	1.013997e+00	1.014920e+00	1.015157e+00	1.015150e+00	1.014871e+00	1.013692e+00	1.011263e+00	1.007961e+00	1.004427e+00	1.001105e+00	9.982035e-01	9.958177e-01	9.940037e-01	9.927804e-01	9.920911e-01	9.917944e-01	9.917177e-01	9.917186e-01	9.918036e-01	9.921956e-01	9.930062e-01	9.940222e-01	9.949673e-01	9.957252e-01	9.963002e-01	9.967278e-01	9.970411e-01	9.972606e-01	9.974029e-01	9.974864e-01	9.975313e-01	9.975562e-01	9.975779e-01	9.976226e-01	9.977682e-01	9.982630e-01	9.996595e-01	1.002505e+00	1.006431e+00	1.010108e+00	1.012528e+00	1.013655e+00	1.013976e+00	1.013981e+00	1.013784e+00	1.012834e+00	1.010663e+00	1.007513e+00	1.004011e+00	1.000642e+00	9.976527e-01	9.951558e-01	9.932143e-01	9.918569e-01	9.910467e-01	9.906599e-01	9.905203e-01	9.904706e-01	9.904881e-01	9.907722e-01	9.914564e-01	9.923800e-01	9.932759e-01	9.939928e-01	9.945079e-01	9.948548e-01	9.950786e-01	9.951880e-01	9.952646e-01	9.995156e-01	9.995262e-01	9.995186e-01	9.995205e-01	9.995191e-01	9.995177e-01	9.995166e-01	9.995165e-01	9.995167e-01	9.995168e-01	9.995169e-01	9.995168e-01	9.995162e-01	9.995156e-01	9.995144e-01	9.995117e-01	9.995086e-01	9.995057e-01	9.995020e-01	9.994982e-01	9.994952e-01	9.994935e-01	9.994923e-01	9.994910e-01	9.994947e-01	9.995227e-01	9.996487e-01	1.000135e+00	1.001567e+00	1.004434e+00	1.008218e+00	1.011601e+00	1.013740e+00	1.014696e+00	1.014956e+00	1.014959e+00	1.014731e+00	1.013687e+00	1.011421e+00	1.008234e+00	1.004750e+00	1.001435e+00	9.985225e-01	9.961160e-01	9.942678e-01	9.929930e-01	9.922433e-01	9.918963e-01	9.917919e-01	9.917864e-01	9.918397e-01	9.921413e-01	9.928648e-01	9.938595e-01	9.948319e-01	9.956267e-01	9.962293e-01	9.966734e-01	9.969966e-01	9.972222e-01	9.973691e-01	9.974567e-01	9.975053e-01	9.975338e-01	9.975599e-01	9.976117e-01	9.977711e-01	9.982834e-01	9.996692e-01	1.002430e+00	1.006231e+00	1.009835e+00	1.012257e+00	1.013417e+00	1.013765e+00	1.013779e+00	1.013620e+00	1.012792e+00	1.010788e+00	1.007767e+00	1.004324e+00	1.000964e+00	9.979627e-01	9.954458e-01	9.934755e-01	9.920731e-01	9.912048e-01	9.907644e-01	9.905934e-01	9.905370e-01	9.905275e-01	9.907295e-01	9.913261e-01	9.922166e-01	9.931284e-01	9.938763e-01	9.944173e-01	9.947805e-01	9.950130e-01	9.951256e-01	9.952065e-01	9.995167e-01	9.995275e-01	9.995180e-01	9.995194e-01	9.995174e-01	9.995160e-01	9.995153e-01	9.995155e-01	9.995159e-01	9.995156e-01	9.995152e-01	9.995146e-01	9.995144e-01	9.995136e-01	9.995133e-01	9.995123e-01	9.995097e-01	9.995071e-01	9.995033e-01	9.994988e-01	9.994951e-01	9.994935e-01	9.994929e-01	9.994927e-01	9.994979e-01	9.995284e-01	9.996579e-01	1.000149e+00	1.001554e+00	1.004321e+00	1.007984e+00	1.011310e+00	1.013463e+00	1.014457e+00	1.014742e+00	1.014757e+00	1.014575e+00	1.013664e+00	1.011572e+00	1.008515e+00	1.005093e+00	1.001794e+00	9.988730e-01	9.964443e-01	9.945594e-01	9.932318e-01	9.924204e-01	9.920195e-01	9.918796e-01	9.918614e-01	9.918920e-01	9.921087e-01	9.927297e-01	9.936837e-01	9.946760e-01	9.955098e-01	9.961450e-01	9.966104e-01	9.969458e-01	9.971788e-01	9.973317e-01	9.974248e-01	9.974783e-01	9.975113e-01	9.975425e-01	9.976024e-01	9.977769e-01	9.983080e-01	9.996820e-01	1.002354e+00	1.006018e+00	1.009541e+00	1.011965e+00	1.013163e+00	1.013542e+00	1.013568e+00	1.013443e+00	1.012732e+00	1.010905e+00	1.008026e+00	1.004655e+00	1.001314e+00	9.983026e-01	9.957638e-01	9.937616e-01	9.923140e-01	9.913882e-01	9.908909e-01	9.906799e-01	9.906083e-01	9.905812e-01	9.907075e-01	9.912019e-01	9.920415e-01	9.929623e-01	9.937436e-01	9.943152e-01	9.946977e-01	9.949400e-01	9.950551e-01	9.951394e-01	9.995175e-01	9.995286e-01	9.995170e-01	9.995182e-01	9.995158e-01	9.995146e-01	9.995141e-01	9.995145e-01	9.995147e-01	9.995138e-01	9.995126e-01	9.995116e-01	9.995113e-01	9.995116e-01	9.995112e-01	9.995117e-01	9.995106e-01	9.995084e-01	9.995046e-01	9.994996e-01	9.994950e-01	9.994929e-01	9.994926e-01	9.994932e-01	9.995003e-01	9.995329e-01	9.996687e-01	1.000167e+00	1.001543e+00	1.004207e+00	1.007736e+00	1.010998e+00	1.013164e+00	1.014200e+00	1.014516e+00	1.014542e+00	1.014402e+00	1.013622e+00	1.011713e+00	1.008800e+00	1.005452e+00	1.002176e+00	9.992511e-01	9.968007e-01	9.948773e-01	9.934943e-01	9.926187e-01	9.921592e-01	9.919799e-01	9.919441e-01	9.919561e-01	9.920990e-01	9.926047e-01	9.934951e-01	9.944967e-01	9.953702e-01	9.960433e-01	9.965357e-01	9.968866e-01	9.971300e-01	9.972901e-01	9.973891e-01	9.974479e-01	9.974857e-01	9.975223e-01	9.975914e-01	9.977827e-01	9.983336e-01	9.996959e-01	1.002274e+00	1.005794e+00	1.009223e+00	1.011645e+00	1.012885e+00	1.013303e+00	1.013345e+00	1.013248e+00	1.012654e+00	1.011008e+00	1.008284e+00	1.004998e+00	1.001684e+00	9.986684e-01	9.961086e-01	9.940725e-01	9.925769e-01	9.915919e-01	9.910355e-01	9.907806e-01	9.906861e-01	9.906446e-01	9.907053e-01	9.910871e-01	9.918519e-01	9.927702e-01	9.935863e-01	9.941947e-01	9.946024e-01	9.948583e-01	9.949777e-01	9.950656e-01	9.995161e-01	9.995286e-01	9.995154e-01	9.995164e-01	9.995133e-01	9.995123e-01	9.995122e-01	9.995124e-01	9.995126e-01	9.995113e-01	9.995096e-01	9.995084e-01	9.995081e-01	9.995086e-01	9.995098e-01	9.995092e-01	9.995101e-01	9.995084e-01	9.995046