# vtk DataFile Version 3.0
vtk output
ASCII
DATASET STRUCTURED_GRID
DIMENSIONS 101 101 1
POINTS 10201 double
0.000000e+00	0.000000e+00	0.0	1.000000e-02	0.000000e+00	0.0	2.000000e-02	0.000000e+00	0.0	3.000000e-02	0.000000e+00	0.0	4.000000e-02	0.000000e+00	0.0	5.000000e-02	0.000000e+00	0.0	6.000000e-02	0.000000e+00	0.0	7.000000e-02	0.000000e+00	0.0	8.000000e-02	0.000000e+00	0.0	9.000000e-02	0.000000e+00	0.0	1.000000e-01	0.000000e+00	0.0	1.100000e-01	0.000000e+00	0.0	1.200000e-01	0.000000e+00	0.0	1.300000e-01	0.000000e+00	0.0	1.400000e-01	0.000000e+00	0.0	1.500000e-01	0.000000e+00	0.0	1.600000e-01	0.000000e+00	0.0	1.700000e-01	0.000000e+00	0.0	1.800000e-01	0.000000e+00	0.0	1.900000e-01	0.000000e+00	0.0	2.000000e-01	0.000000e+00	0.0	2.100000e-01	0.000000e+00	0.0	2.200000e-01	0.000000e+00	0.0	2.300000e-01	0.000000e+00	0.0	2.400000e-01	0.000000e+00	0.0	2.500000e-01	0.000000e+00	0.0	2.600000e-01	0.000000e+00	0.0	2.700000e-01	0.000000e+00	0.0	2.800000e-01	0.000000e+00	0.0	2.900000e-01	0.000000e+00	0.0	3.000000e-01	0.000000e+00	0.0	3.100000e-01	0.000000e+00	0.0	3.200000e-01	0.000000e+00	0.0	3.300000e-01	0.000000e+00	0.0	3.400000e-01	0.000000e+00	0.0	3.500000e-01	0.000000e+00	0.0	3.600000e-01	0.000000e+00	0.0	3.700000e-01	0.000000e+00	0.0	3.800000e-01	0.000000e+00	0.0	3.900000e-01	0.000000e+00	0.0	4.000000e-01	0.000000e+00	0.0	4.100000e-01	0.000000e+00	0.0	4.200000e-01	0.000000e+00	0.0	4.300000e-01	0.000000e+00	0.0	4.400000e-01	0.000000e+00	0.0	4.500000e-01	0.000000e+00	0.0	4.600000e-01	0.000000e+00	0.0	4.700000e-01	0.000000e+00	0.0	4.800000e-01	0.000000e+00	0.0	4.900000e-01	0.000000e+00	0.0	5.000000e-01	0.000000e+00	0.0	5.100000e-01	0.000000e+00	0.0	5.200000e-01	0.000000e+00	0.0	5.300000e-01	0.000000e+00	0.0	5.400000e-01	0.000000e+00	0.0	5.500000e-01	0.000000e+00	0.0	5.600000e-01	0.000000e+00	0.0	5.700000e-01	0.000000e+00	0.0	5.800000e-01	0.000000e+00	0.0	5.900000e-01	0.000000e+00	0.0	6.000000e-01	0.000000e+00	0.0	6.100000e-01	0.000000e+00	0.0	6.200000e-01	0.000000e+00	0.0	6.300000e-01	0.000000e+00	0.0	6.400000e-01	0.000000e+00	0.0	6.500000e-01	0.000000e+00	0.0	6.600000e-01	0.000000e+00	0.0	6.700000e-01	0.000000e+00	0.0	6.800000e-01	0.000000e+00	0.0	6.900000e-01	0.000000e+00	0.0	7.000000e-01	0.000000e+00	0.0	7.100000e-01	0.000000e+00	0.0	7.200000e-01	0.000000e+00	0.0	7.300000e-01	0.000000e+00	0.0	7.400000e-01	0.000000e+00	0.0	7.500000e-01	0.000000e+00	0.0	7.600000e-01	0.000000e+00	0.0	7.700000e-01	0.000000e+00	0.0	7.800000e-01	0.000000e+00	0.0	7.900000e-01	0.000000e+00	0.0	8.000000e-01	0.000000e+00	0.0	8.100000e-01	0.000000e+00	0.0	8.200000e-01	0.000000e+00	0.0	8.300000e-01	0.000000e+00	0.0	8.400000e-01	0.000000e+00	0.0	8.500000e-01	0.000000e+00	0.0	8.600000e-01	0.000000e+00	0.0	8.700000e-01	0.000000e+00	0.0	8.800000e-01	0.000000e+00	0.0	8.900000e-01	0.000000e+00	0.0	9.000000e-01	0.000000e+00	0.0	9.100000e-01	0.000000e+00	0.0	9.200000e-01	0.000000e+00	0.0	9.300000e-01	0.000000e+00	0.0	9.400000e-01	0.000000e+00	0.0	9.500000e-01	0.000000e+00	0.0	9.600000e-01	0.000000e+00	0.0	9.700000e-01	0.000000e+00	0.0	9.800000e-01	0.000000e+00	0.0	9.900000e-01	0.000000e+00	0.0	1.000000e+00	0.000000e+00	0.0	0.000000e+00	1.000000e-02	0.0	1.000000e-02	1.000000e-02	0.0	2.000000e-02	1.000000e-02	0.0	3.000000e-02	1.000000e-02	0.0	4.000000e-02	1.000000e-02	0.0	5.000000e-02	1.000000e-02	0.0	6.000000e-02	1.000000e-02	0.0	7.000000e-02	1.000000e-02	0.0	8.000000e-02	1.000000e-02	0.0	9.000000e-02	1.000000e-02	0.0	1.000000e-01	1.000000e-02	0.0	1.100000e-01	1.000000e-02	0.0	1.200000e-01	1.000000e-02	0.0	1.300000e-01	1.000000e-02	0.0	1.400000e-01	1.000000e-02	0.0	1.500000e-01	1.000000e-02	0.0	1.600000e-01	1.000000e-02	0.0	1.700000e-01	1.000000e-02	0.0	1.800000e-01	1.000000e-02	0.0	1.900000e-01	1.000000e-02	0.0	2.000000e-01	1.000000e-02	0.0	2.100000e-01	1.000000e-02	0.0	2.200000e-01	1.000000e-02	0.0	2.300000e-01	1.000000e-02	0.0	2.400000e-01	1.000000e-02	0.0	2.500000e-01	1.000000e-02	0.0	2.600000e-01	1.000000e-02	0.0	2.700000e-01	1.000000e-02	0.0	2.800000e-01	1.000000e-02	0.0	2.900000e-01	1.000000e-02	0.0	3.000000e-01	1.000000e-02	0.0	3.100000e-01	1.000000e-02	0.0	3.200000e-01	1.000000e-02	0.0	3.300000e-01	1.000000e-02	0.0	3.400000e-01	1.000000e-02	0.0	3.500000e-01	1.000000e-02	0.0	3.600000e-01	1.000000e-02	0.0	3.700000e-01	1.000000e-02	0.0	3.800000e-01	1.000000e-02	0.0	3.900000e-01	1.000000e-02	0.0	4.000000e-01	1.000000e-02	0.0	4.100000e-01	1.000000e-02	0.0	4.200000e-01	1.000000e-02	0.0	4.300000e-01	1.000000e-02	0.0	4.400000e-01	1.000000e-02	0.0	4.500000e-01	1.000000e-02	0.0	4.600000e-01	1.000000e-02	0.0	4.700000e-01	1.000000e-02	0.0	4.800000e-01	1.000000e-02	0.0	4.900000e-01	1.000000e-02	0.0	5.000000e-01	1.000000e-02	0.0	5.100000e-01	1.000000e-02	0.0	5.200000e-01	1.000000e-02	0.0	5.300000e-01	1.000000e-02	0.0	5.400000e-01	1.000000e-02	0.0	5.500000e-01	1.000000e-02	0.0	5.600000e-01	1.000000e-02	0.0	5.700000e-01	1.000000e-02	0.0	5.800000e-01	1.000000e-02	0.0	5.900000e-01	1.000000e-02	0.0	6.000000e-01	1.000000e-02	0.0	6.100000e-01	1.000000e-02	0.0	6.200000e-01	1.000000e-02	0.0	6.300000e-01	1.000000e-02	0.0	6.400000e-01	1.000000e-02	0.0	6.500000e-01	1.000000e-02	0.0	6.600000e-01	1.000000e-02	0.0	6.700000e-01	1.000000e-02	0.0	6.800000e-01	1.000000e-02	0.0	6.900000e-01	1.000000e-02	0.0	7.000000e-01	1.000000e-02	0.0	7.100000e-01	1.000000e-02	0.0	7.200000e-01	1.000000e-02	0.0	7.300000e-01	1.000000e-02	0.0	7.400000e-01	1.000000e-02	0.0	7.500000e-01	1.000000e-02	0.0	7.600000e-01	1.000000e-02	0.0	7.700000e-01	1.000000e-02	0.0	7.800000e-01	1.000000e-02	0.0	7.900000e-01	1.000000e-02	0.0	8.000000e-01	1.000000e-02	0.0	8.100000e-01	1.000000e-02	0.0	8.200000e-01	1.000000e-02	0.0	8.300000e-01	1.000000e-02	0.0	8.400000e-01	1.000000e-02	0.0	8.500000e-01	1.000000e-02	0.0	8.600000e-01	1.000000e-02	0.0	8.700000e-01	1.000000e-02	0.0	8.800000e-01	1.000000e-02	0.0	8.900000e-01	1.000000e-02	0.0	9.000000e-01	1.000000e-02	0.0	9.100000e-01	1.000000e-02	0.0	9.200000e-01	1.000000e-02	0.0	9.300000e-01	1.000000e-02	0.0	9.400000e-01	1.000000e-02	0.0	9.500000e-01	1.000000e-02	0.0	9.600000e-01	1.000000e-02	0.0	9.700000e-01	1.000000e-02	0.0	9.800000e-01	1.000000e-02	0.0	9.900000e-01	1.000000e-02	0.0	1.000000e+00	1.000000e-02	0.0	0.000000e+00	2.000000e-02	0.0	1.000000e-02	2.000000e-02	0.0	2.000000e-02	2.000000e-02	0.0	3.000000e-02	2.000000e-02	0.0	4.000000e-02	2.000000e-02	0.0	5.000000e-02	2.000000e-02	0.0	6.000000e-02	2.000000e-02	0.0	7.000000e-02	2.000000e-02	0.0	8.000000e-02	2.000000e-02	0.0	9.000000e-02	2.000000e-02	0.0	1.000000e-01	2.000000e-02	0.0	1.100000e-01	2.000000e-02	0.0	1.200000e-01	2.000000e-02	0.0	1.300000e-01	2.000000e-02	0.0	1.400000e-01	2.000000e-02	0.0	1.500000e-01	2.000000e-02	0.0	1.600000e-01	2.000000e-02	0.0	1.700000e-01	2.000000e-02	0.0	1.800000e-01	2.000000e-02	0.0	1.900000e-01	2.000000e-02	0.0	2.000000e-01	2.000000e-02	0.0	2.100000e-01	2.000000e-02	0.0	2.200000e-01	2.000000e-02	0.0	2.300000e-01	2.000000e-02	0.0	2.400000e-01	2.000000e-02	0.0	2.500000e-01	2.000000e-02	0.0	2.600000e-01	2.000000e-02	0.0	2.700000e-01	2.000000e-02	0.0	2.800000e-01	2.000000e-02	0.0	2.900000e-01	2.000000e-02	0.0	3.000000e-01	2.000000e-02	0.0	3.100000e-01	2.000000e-02	0.0	3.200000e-01	2.000000e-02	0.0	3.300000e-01	2.000000e-02	0.0	3.400000e-01	2.000000e-02	0.0	3.500000e-01	2.000000e-02	0.0	3.600000e-01	2.000000e-02	0.0	3.700000e-01	2.000000e-02	0.0	3.800000e-01	2.000000e-02	0.0	3.900000e-01	2.000000e-02	0.0	4.000000e-01	2.000000e-02	0.0	4.100000e-01	2.000000e-02	0.0	4.200000e-01	2.000000e-02	0.0	4.300000e-01	2.000000e-02	0.0	4.400000e-01	2.000000e-02	0.0	4.500000e-01	2.000000e-02	0.0	4.600000e-01	2.000000e-02	0.0	4.700000e-01	2.000000e-02	0.0	4.800000e-01	2.000000e-02	0.0	4.900000e-01	2.000000e-02	0.0	5.000000e-01	2.000000e-02	0.0	5.100000e-01	2.000000e-02	0.0	5.200000e-01	2.000000e-02	0.0	5.300000e-01	2.000000e-02	0.0	5.400000e-01	2.000000e-02	0.0	5.500000e-01	2.000000e-02	0.0	5.600000e-01	2.000000e-02	0.0	5.700000e-01	2.000000e-02	0.0	5.800000e-01	2.000000e-02	0.0	5.900000e-01	2.000000e-02	0.0	6.000000e-01	2.000000e-02	0.0	6.100000e-01	2.000000e-02	0.0	6.200000e-01	2.000000e-02	0.0	6.300000e-01	2.000000e-02	0.0	6.400000e-01	2.000000e-02	0.0	6.500000e-01	2.000000e-02	0.0	6.600000e-01	2.000000e-02	0.0	6.700000e-01	2.000000e-02	0.0	6.800000e-01	2.000000e-02	0.0	6.900000e-01	2.000000e-02	0.0	7.000000e-01	2.000000e-02	0.0	7.100000e-01	2.000000e-02	0.0	7.200000e-01	2.000000e-02	0.0	7.300000e-01	2.000000e-02	0.0	7.400000e-01	2.000000e-02	0.0	7.500000e-01	2.000000e-02	0.0	7.600000e-01	2.000000e-02	0.0	7.700000e-01	2.000000e-02	0.0	7.800000e-01	2.000000e-02	0.0	7.900000e-01	2.000000e-02	0.0	8.000000e-01	2.000000e-02	0.0	8.100000e-01	2.000000e-02	0.0	8.200000e-01	2.000000e-02	0.0	8.300000e-01	2.000000e-02	0.0	8.400000e-01	2.000000e-02	0.0	8.500000e-01	2.000000e-02	0.0	8.600000e-01	2.000000e-02	0.0	8.700000e-01	2.000000e-02	0.0	8.800000e-01	2.000000e-02	0.0	8.900000e-01	2.000000e-02	0.0	9.000000e-01	2.000000e-02	0.0	9.100000e-01	2.000000e-02	0.0	9.200000e-01	2.000000e-02	0.0	9.300000e-01	2.000000e-02	0.0	9.400000e-01	2.000000e-02	0.0	9.500000e-01	2.000000e-02	0.0	9.600000e-01	2.000000e-02	0.0	9.700000e-01	2.000000e-02	0.0	9.800000e-01	2.000000e-02	0.0	9.900000e-01	2.000000e-02	0.0	1.000000e+00	2.000000e-02	0.0	0.000000e+00	3.000000e-02	0.0	1.000000e-02	3.000000e-02	0.0	2.000000e-02	3.000000e-02	0.0	3.000000e-02	3.000000e-02	0.0	4.000000e-02	3.000000e-02	0.0	5.000000e-02	3.000000e-02	0.0	6.000000e-02	3.000000e-02	0.0	7.000000e-02	3.000000e-02	0.0	8.000000e-02	3.000000e-02	0.0	9.000000e-02	3.000000e-02	0.0	1.000000e-01	3.000000e-02	0.0	1.100000e-01	3.000000e-02	0.0	1.200000e-01	3.000000e-02	0.0	1.300000e-01	3.000000e-02	0.0	1.400000e-01	3.000000e-02	0.0	1.500000e-01	3.000000e-02	0.0	1.600000e-01	3.000000e-02	0.0	1.700000e-01	3.000000e-02	0.0	1.800000e-01	3.000000e-02	0.0	1.900000e-01	3.000000e-02	0.0	2.000000e-01	3.000000e-02	0.0	2.100000e-01	3.000000e-02	0.0	2.200000e-01	3.000000e-02	0.0	2.300000e-01	3.000000e-02	0.0	2.400000e-01	3.000000e-02	0.0	2.500000e-01	3.000000e-02	0.0	2.600000e-01	3.000000
[...]
POINT_DATA 10201

SCALARS Height double 1
LOOKUP_TABLE default
1.137166e+00	1.131065e+00	1.115609e+00	1.091788e+00	1.067653e+00	1.046446e+00	1.029548e+00	1.016109e+00	1.005191e+00	9.961838e-01	9.887239e-01	9.826713e-01	9.779730e-01	9.745561e-01	9.722287e-01	9.707925e-01	9.699488e-01	9.694497e-01	9.691270e-01	9.688881e-01	9.687705e-01	9.688881e-01	9.691270e-01	9.694497e-01	9.699486e-01	9.707922e-01	9.722298e-01	9.745620e-01	9.779868e-01	9.826843e-01	9.887131e-01	9.961269e-01	1.005050e+00	1.015674e+00	1.028140e+00	1.041820e+00	1.054515e+00	1.063425e+00	1.068007e+00	1.069251e+00	1.067835e+00	1.061370e+00	1.046784e+00	1.026902e+00	1.011029e+00	1.003613e+00	1.001204e+00	1.000457e+00	1.000181e+00	1.000066e+00	1.000021e+00	1.000006e+00	1.000002e+00	1.000000e+00	1.000000e+00	1.000000e+00	1.000000e+00	1.000000e+00	1.000000e+00	1.000000e+00	1.000000e+00	1.000000e+00	1.000000e+00	1.000000e+00	1.000000e+00	1.000000e+00	1.000000e+00	1.000000e+00	1.000000e+00	1.000000e+00	1.000000e+00	1.000000e+00	1.000000e+00	1.000000e+00	1.000000e+00	1.000000e+00	1.000000e+00	1.000000e+00	1.000000e+00	1.000000e+00	1.000000e+00	1.000000e+00	1.000000e+00	1.000000e+00	1.000000e+00	1.000000e+00	1.000000e+00	1.000000e+00	1.000000e+00	1.000000e+00	1.000000e+00	1.000000e+00	1.000000e+00	1.000000e+00	1.000000e+00	1.000000e+00	1.000000e+00	1.000000e+00	1.000000e+00	1.000000e+00	1.000000e+00	1.131065e+00	1.124469e+00	1.110905e+00	1.089314e+00	1.067160e+00	1.047337e+00	1.032020e+00	1.019740e+00	1.009332e+00	1.000487e+00	9.930740e-01	9.870358e-01	9.823466e-01	9.788500e-01	9.763059e-01	9.745426e-01	9.734433e-01	9.726946e-01	9.721693e-01	9.718015e-01	9.716454e-01	9.718015e-01	9.721693e-01	9.726945e-01	9.734430e-01	9.745424e-01	9.763077e-01	9.788575e-01	9.823605e-01	9.870468e-01	9.930647e-01	1.000448e+00	1.009239e+00	1.019451e+00	1.030904e+00	1.042911e+00	1.054073e+00	1.062569e+00	1.067080e+00	1.067591e+00	1.065347e+00	1.057310e+00	1.043238e+00	1.025873e+00	1.011408e+00	1.003704e+00	1.001131e+00	1.000409e+00	1.000163e+00	1.000060e+00	1.000019e+00	1.000005e+00	1.000001e+00	1.000000e+00	1.000000e+00	1.000000e+00	1.000000e+00	1.000000e+00	1.000000e+00	1.000000e+00	1.000000e+00	1.000000e+00	1.000000e+00	1.000000e+00	1.000000e+00	1.000000e+00	1.000000e+00	1.000000e+00	1.000000e+00	1.000000e+00	1.000000e+00	1.000000e+00	1.000000e+00	1.000000e+00	1.000000e+00	1.000000e+00	1.000000e+00	1.000000e+00	1.000000e+00	1.000000e+00	1.000000e+00	1.000000e+00	1.000000e+00	1.000000e+00	1.000000e+00	1.000000e+00	1.000000e+00	1.000000e+00	1.000000e+00	1.000000e+00	1.000000e+00	1.000000e+00	1.000000e+00	1.000000e+00	1.000000e+00	1.000000e+00	1.000000e+00	1.000000e+00	1.000000e+00	1.000000e+00	1.000000e+00	1.115609e+00	1.110905e+00	1.101528e+00	1.084489e+00	1.063776e+00	1.044517e+00	1.029222e+00	1.018337e+00	1.009715e+00	1.002322e+00	9.961232e-01	9.911599e-01	9.872805e-01	9.842134e-01	9.817878e-01	9.799165e-01	9.785658e-01	9.776553e-01	9.769884e-01	9.764874e-01	9.762622e-01	9.764874e-01	9.769883e-01	9.776551e-01	9.785657e-01	9.799178e-01	9.817933e-01	9.842234e-01	9.872882e-01	9.911545e-01	9.961024e-01	1.002301e+00	1.009611e+00	1.017678e+00	1.025912e+00	1.034160e+00	1.043291e+00	1.053024e+00	1.059934e+00	1.061511e+00	1.058891e+00	1.050238e+00	1.040064e+00	1.031482e+00	1.020746e+00	1.009245e+00	1.002783e+00	1.000800e+00	1.000280e+00	1.000107e+00	1.000038e+00	1.000011e+00	1.000003e+00	1.000001e+00	1.000000e+00	1.000000e+00	1.000000e+00	1.000000e+00	1.000000e+00	1.000000e+00	1.000000e+00	1.000000e+00	1.000000e+00	1.000000e+00	1.000000e+00	1.000000e+00	1.000000e+00	1.000000e+00	1.000000e+00	1.000000e+00	1.000000e+00	1.000000e+00	1.000000e+00	1.000000e+00	1.000000e+00	1.000000e+00	1.000000e+00	1.000000e+00	1.000000e+00	1.000000e+00	1.000000e+00	1.000000e+00	1.000000e+00	1.000000e+00	1.000000e+00	1.000000e+00	1.000000e+00	1.000000e+00	1.000000e+00	1.000000e+00	1.000000e+00	1.000000e+00	1.000000e+00	1.000000e+00	1.000000e+00	1.000000e+00	1.000000e+00	1.000000e+00	1.000000e+00	1.000000e+00	1.000000e+00	1.091788e+00	1.089314e+00	1.084489e+00	1.074521e+00	1.061392e+00	1.045926e+00	1.030860e+00	1.020000e+00	1.013210e+00	1.007986e+00	1.003421e+00	9.994079e-01	9.958903e-01	9.929011e-01	9.904265e-01	9.884379e-01	9.869254e-01	9.858732e-01	9.851828e-01	9.846987e-01	9.844345e-01	9.846987e-01	9.851826e-01	9.858729e-01	9.869258e-01	9.884411e-01	9.904340e-01	9.929103e-01	9.958922e-01	9.993927e-01	1.003376e+00	1.007863e+00	1.012714e+00	1.017644e+00	1.022698e+00	1.028407e+00	1.034916e+00	1.041559e+00	1.047271e+00	1.049087e+00	1.046983e+00	1.041283e+00	1.036357e+00	1.033032e+00	1.027679e+00	1.017430e+00	1.006832e+00	1.001861e+00	1.000527e+00	1.000185e+00	1.000069e+00	1.000023e+00	1.000007e+00	1.000002e+00	1.000000e+00	1.000000e+00	1.000000e+00	1.000000e+00	1.000000e+00	1.000000e+00	1.000000e+00	1.000000e+00	1.000000e+00	1.000000e+00	1.000000e+00	1.000000e+00	1.000000e+00	1.000000e+00	1.000000e+00	1.000000e+00	1.000000e+00	1.000000e+00	1.000000e+00	1.000000e+00	1.000000e+00	1.000000e+00	1.000000e+00	1.000000e+00	1.000000e+00	1.000000e+00	1.000000e+00	1.000000e+00	1.000000e+00	1.000000e+00	1.000000e+00	1.000000e+00	1.000000e+00	1.000000e+00	1.000000e+00	1.000000e+00	1.000000e+00	1.000000e+00	1.000000e+00	1.000000e+00	1.000000e+00	1.000000e+00	1.000000e+00	1.000000e+00	1.000000e+00	1.000000e+00	1.000000e+00	1.067653e+00	1.067160e+00	1.063776e+00	1.061392e+00	1.056548e+00	1.046561e+00	1.033081e+00	1.021707e+00	1.015349e+00	1.011985e+00	1.009368e+00	1.006797e+00	1.004322e+00	1.002124e+00	1.000299e+00	9.988288e-01	9.976742e-01	9.968262e-01	9.962360e-01	9.958948e-01	9.958111e-01	9.958947e-01	9.962357e-01	9.968263e-01	9.976762e-01	9.988352e-01	1.000309e+00	1.002131e+00	1.004318e+00	1.006774e+00	1.009260e+00	1.011478e+00	1.013554e+00	1.015885e+00	1.019046e+00	1.022688e+00	1.025725e+00	1.027916e+00	1.029893e+00	1.032547e+00	1.034862e+00	1.034962e+00	1.034583e+00	1.033560e+00	1.031450e+00	1.025074e+00	1.013819e+00	1.004681e+00	1.001209e+00	1.000351e+00	1.000124e+00	1.000045e+00	1.000014e+00	1.000004e+00	1.000001e+00	1.000000e+00	1.000000e+00	1.000000e+00	1.000000e+00	1.000000e+00	1.000000e+00	1.000000e+00	1.000000e+00	1.000000e+00	1.000000e+00	1.000000e+00	1.000000e+00	1.000000e+00	1.000000e+00	1.000000e+00	1.000000e+00	1.000000e+00	1.000000e+00	1.000000e+00	1.000000e+00	1.000000e+00	1.000000e+00	1.000000e+00	1.000000e+00	1.000000e+00	1.000000e+00	1.000000e+00	1.000000e+00	1.000000e+00	1.000000e+00	1.000000e+00	1.000000e+00	1.000000e+00	1.000000e+00	1.000000e+00	1.000000e+00	1.000000e+00	1.000000e+00	1.000000e+00	1.000000e+00	1.000000e+00	1.000000e+00	1.000000e+00	1.000000e+00	1.000000e+00	1.000000e+00	1.046446e+00	1.047337e+00	1.044517e+00	1.045926e+00	1.046561e+00	1.043959e+00	1.035400e+00	1.024365e+00	1.016882e+00	1.013556e+00	1.012089e+00	1.011358e+00	1.010878e+00	1.010463e+00	1.009989e+00	1.009416e+00	1.008820e+00	1.008270e+00	1.007831e+00	1.007584e+00	1.007523e+00	1.007584e+00	1.007831e+00	1.008271e+00	1.008824e+00	1.009425e+00	1.009997e+00	1.010471e+00	1.010871e+00	1.011291e+00	1.011793e+00	1.012445e+00	1.013278e+00	1.014353e+00	1.015076e+00	1.014900e+00	1.014009e+00	1.012862e+00	1.012772e+00	1.016276e+00	1.023756e+00	1.030560e+00	1.033147e+00	1.033409e+00	1.032689e+00	1.029694e+00	1.021313e+00	1.009951e+00	1.002939e+00	1.000744e+00	1.000223e+00	1.000078e+00	1.000027e+00	1.000008e+00	1.000002e+00	1.000000e+00	1.000000e+00	1.000000e+00	1.000000e+00	1.000000e+00	1.000000e+00	1.000000e+00	1.000000e+00	1.000000e+00	1.000000e+00	1.000000e+00	1.000000e+00	1.000000e+00	1.000000e+00	1.000000e+00	1.000000e+00	1.000000e+00	1.000000e+00	1.000000e+00	1.000000e+00	1.000000e+00	1.000000e+00	1.000000e+00	1.000000e+00	1.000000e+00	1.000000e+00	1.000000e+00	1.000000e+00	1.000000e+00	1.000000e+00	1.000000e+00	1.000000e+00	1.000000e+00	1.000000e+00	1.000000e+00	1.000000e+00	1.000000e+00	1.000000e+00	1.000000e+00	1.000000e+00	1.000000e+00	1.000000e+00	1.000000e+00	1.000000e+00	1.000000e+00	1.000000e+00	1.029548e+00	1.032020e+00	1.029222e+00	1.030860e+00	1.033081e+00	1.035400e+00	1.033837e+00	1.026665e+00	1.018710e+00	1.014731e+00	1.013545e+00	1.013926e+00	1.014875e+00	1.015840e+00	1.016356e+00	1.016576e+00	1.016591e+00	1.016465e+00	1.016299e+00	1.016188e+00	1.016157e+00	1.016188e+00	1.016299e+00	1.016468e+00	1.016598e+00	1.016584e+00	1.016360e+00	1.015864e+00	1.014911e+00	1.013724e+00	1.012843e+00	1.012517e+00	1.012201e+00	1.010970e+00	1.008072e+00	1.004088e+00	1.000605e+00	9.991143e-01	1.000073e+00	1.005718e+00	1.014811e+00	1.024537e+00	1.030825e+00	1.032727e+00	1.032851e+00	1.031596e+00	1.026810e+00	1.016628e+00	1.006430e+00	1.001693e+00	1.000433e+00	1.000135e+00	1.000046e+00	1.000015e+00	1.000004e+00	1.000001e+00	1.000000e+00	1.000000e+00	1.000000e+00	1.000000e+00	1.000000e+00	1.000000e+00	1.000000e+00	1.000000e+00	1.000000e+00	1.000000e+00	1.000000e+00	1.000000e+00	1.000000e+00	1.000000e+00	1.000000e+00	1.000000e+00	1.000000e+00	1.000000e+00	1.000000e+00	1.000000e+00	1.000000e+00	1.000000e+00	1.000000e+00	1.000000e+00	1.000000e+00	1.000000e+00	1.000000e+00	1.000000e+00	1.000000e+00	1.000000e+00	1.000000e+00	1.000000e+00	1.000000e+00	1.000000e+00	1.000000e+00	1.000000e+00	1.000000e+00	1.000000e+00	1.000000e+00	1.000000e+00	1.000000e+00	1.000000e+00	1.000000e+00	1.000000e+00	1.000000e+00	1.016109e+00	1.019740e+00	1.018337e+00	1.020000e+00	1.021707e+00	1.024365e+00	1.026665e+00	1.024339e+00	1.018377e+00	1.014653e+00	1.015033e+00	1.016442e+00	1.017666e+00	1.018657e+00	1.019223e+00	1.019558e+00	1.019750e+00	1.019868e+00	1.019918e+00	1.019916e+00	1.019909e+00	1.019916e+00	1.019919e+00	1.019872e+00	1.019758e+00	1.019566e+00	1.019232e+00	1.018693e+00	1.017706e+00	1.016014e+00	1.013628e+00	1.010809e+00	1.007534e+00	1.003112e+00	9.978248e-01	9.929601e-01	9.902304e-01	9.898494e-01	9.927822e-01	9.992210e-01	1.007868e+00	1.017850e+00	1.026746e+00	1.031337e+00	1.032286e+00	1.032071e+00	1.029809e+00	1.022592e+00	1.011574e+00	1.003690e+00	1.000902e+00	1.000240e+00	1.000077e+00	1.000025e+00	1.000008e+00	1.000002e+00	1.000000e+00	1.000000e+00	1.000000e+00	1.000000e+00	1.000000e+00	1.000000e+00	1.000000e+00	1.000000e+00	1.000000e+00	1.000000e+00	1.000000e+00	1.000000e+00	1.000000e+00	1.000000e+00	1.000000e+00	1.000000e+00	1.000000e+00	1.000000e+00	1.000000e+00	1.000000e+00	1.000000e+00	1.000000e+00	1.000000e+00	1.000000e+00	1.000000e+00	1.000000e+00	1.000000e+00	1.000000e+00	1.000000e+00	1.000000e+00	1.000000e+00	1.000000e+00	1.000000e+00	1.000000e+00	1.000000e+00	1.000000e+00	1.000000e+00	1.000000e+00	1.000000e+00	1.000000e+00	1.000000e+00	1.000000e+00	1.000000e+00	1.000000e+00	1.000000e+00	1.005191e+00	1.009332e+00	1.009715e+00	1.013210e+00	1.015349e+00	1.016882e+00	1.018710e+00	1.018377e+00	1.014907e+00	1.012076e+00	1.013842e+00	1.016508e+00	1.018235e+00	1.019529e+00	1.020259e+00	1.020675e+00	1.020909e+00	1.021073e+00	1.021182e+00	1.021210e+00	1.021212e+00	1.021210e+00	1.021184e+00	1.021077e+00	1.020917e+00	1.020686e+00	1.020279e+00	1.019560e+00	1.018171e+00	1.015713e+00	1.011473e+00	1.005356e+00	9.987483e-01	9.931231e-01	9.887066e-01	9.858883e-01	9.848290e-01	9.853624e-01	9.886709e-01	9.945215e-01	1.002271e+00	1.011689e+00	1.021575e+00	1.028743e+00	1.031417e+00	1.031802e+00	1.030874e+00	1.026666e+00	1.017158e+00	1.007014e+00	1.001889e+00	1.000452e+00	1.000127e+00	1.000041e+00	1.000013e+00	1.000004e+00	1.000001e+00	1.000000e+00	1.000000e+00	1.000000e+00	1.000000e+00	1.000000e+00	1.000000e+00	1.000000e+00	1.000000e+00	1.000000e+00	1.000000e+00	1.000000e+00	1.000000e+00	1.000000e+00	1.000000e+00	1.000000e+00	1.000000e+00	1.000000e+00	1.000000e+00	1.000000e+00	1.000000e+00	1.000000e+00	1.000000e+00	1.000000e+00	1.000000e+00	1.000000e+00	1.000000e+00	1.000000e+00	1.000000e+00	1.000000e+00	1.000000e+00	1.000000e+00	1.000000e+00	1.000000e+00	1.000000e+00	1.000000e+00	1.000000e+00	1.000000e+00	1.000000e+00	1.000000e+00	1.000000e+00	1.000000e+00	1.000000e+00	1.000000e+00	1.000000e+00	9.961838e-01	1.000487e+00	1.002322e+00	1.007986e+00	1.011985e+00	1.013556e+00	1.014731e+00	1.014653e+00	1.012076e+00	1.008927e+00	1.008540e+00	1.011211e+00	1.013907e+00	1.016211e+00	1.017925e+00	1.019040e+00	1.019721e+00	1.020216e+00	1.020584e+00	1.020777e+00	1.020831e+00	1.020778e+00	1.020587e+00	1.020221e+00	1.019731e+00	1.019061e+00	1.017956e+00	1.016206e+00	1.013598e+00	1.009865e+00	1.004753e+00	9.982831e-01	9.914652e-01	9.864226e-01	9.839710e-01	9.830577e-01	9.828603e-01	9.835020e-01	9.860645e-01	9.908188e-01	9.976481e-01	1.006356e+00	1.016290e+00	1.025220e+00	1.030047e+00	1.031143e+00	1.031083e+00	1.028853e+00	1.021858e+00	1.011298e+00	1.003658e+00	1.000878e+00	1.000217e+00	1.000064e+00	1.000020e+00	1.000006e+00	1.000002e+00	1.000000e+00	1.000000e+00	1.000000e+00	1.000000e+00	1.000000e+00	1.000000e+00	1.000000e+00	1.000000e+00	1.000000e+00	1.000000e+00	1.000000e+00	1.000000e+00	1.000000e+00	1.000000e+00	1.000000e+00	1.000000e+00	1.000000e+00	1.000000e+00	1.000000e+00	1.000000e+00	1.000000e+00	1.000000e+00	1.000000e+00	1.000000e+00	1.000000e+00	1.000000e+00	1.000000e+00	1.000000e+00	1.000000e+00	1.000000e+00	1.000000e+00	1.000000e+00	1.000000e+00	1.000000e+00	1.000000e+00	1.000000e+00	1.000000e+00	1.000000e+00	1.000000e+00	1.000000e+00	1.000000e+00	1.000000e+00	1.000000e+00	1.000000e+00	9.887239e-01	9.930740e-01	9.961232e-01	1.003421e+00	1.009368e+00	1.012089e+00	1.013545e+00	1.015033e+00	1.013842e+00	1.008540e+00	1.003749e+00	1.003344e+00	1.005730e+00	1.008436e+00	1.010958e+00	1.012980e+00	1.014453e+00	1.015479e+00	1.016193e+00	1.016682e+00	1.016902e+00	1.016683e+00	1.016195e+00	1.015486e+00	1.014471e+00	1.013011e+00	1.010973e+00	1.008314e+00	1.005086e+00	1.001447e+00	9.975991e-01	9.935772e-01	9.892760e-01	9.852796e-01	9.829297e-01	9.822568e-01	9.822435e-01	9.827452e-01	9.843769e-01	9.879774e-01	9.938458e-01	1.001825e+00	1.011425e+00	1.021182e+00	1.028003e+00	1.030387e+00	1.030730e+00	1.029687e+00	1.025130e+00	1.015687e+00	1.006257e+00	1.001656e+00	1.000382e+00	1.000100e+00	1.000030e+00	1.000009e+00	1.000003e+00	1.000001e+00	1.000000e+00	1.000000e+00	1.000000e+00	1.000000e+00	1.000000e+00	1.000000e+00	1.000000e+00	1.000000e+00	1.000000e+00	1.000000e+00	1.000000e+00	1.000000e+00	1.000000e+00	1.000000e+00	1.000000e+00	1.000000e+00	1.000000e+00	1.000000e+00	1.000000e+00	1.000000e+00	1.000000e+00	1.000000e+00	1.000000e+00	1.000000e+00	1.000000e+00	1.000000e+00	1.000000e+00	1.000000e+00	1.000000e+00	1.000000e+00	1.000000e+00	1.000000e+00	1.000000e+00	1.000000e+00	1.000000e+00	1.000000e+00	1.000000e+00	1.000000e+00	1.000000e+00	1.000000e+00	1.000000e+00	1.000000e+00	1.000000e+00	9.826713e-01	9.870358e-01	9.911599e-01	9.994079e-01	1.006797e+00	1.011358e+00	1.013926e+00	1.016442e+00	1.016508e+00	1.011211e+00	1.003344e+00	9.991094e-01	9.990161e-01	1.000622e+00	1.002557e+00	1.004466e+00	1.006116e+00	1.007387e+00	1.008273e+00	1.008836e+00	1.009138e+00	1.008837e+00	1.008277e+00	1.007401e+00	1.006142e+00	1.004488e+00	1.002515e+00	1.000355e+00	9.981714e-01	9.961066e-01	9.941944e-01	9.922434e-01	9.898755e-01	9.868549e-01	9.839372e-01	9.824912e-01	9.822428e-01	9.824134e-01	9.833699e-01	9.859464e-01	9.908190e-01	9.980226e-01	1.007135e+00	1.017128e+00	1.025448e+00	1.029414e+00	1.030169e+00	1.029931e+00	1.027079e+00	1.019441e+00	1.009391e+00	1.002885e+00	1.000671e+00	1.000159e+00	1.000044e+00	1.000013e+00	1.000004e+00	1.000001e+00	1.000000e+00	1.000000e+00	1.000000e+00	1.000000e+00	1.000000e+00	1.000000e+00	1.000000e+00	1.000000e+00	1.000000e+00	1.000000e+00	1.000000e+00	1.000000e+00	1.000000e+00	1.000000e+00	1.000000e+00	1.000000e+00	1.000000e+00	1.000000e+00	1.000000e+00	1.000000e+00	1.000000e+00	1.000000e+00	1.000000e+00	1.000000e+00	1.000000e+00	1.000000e+00	1.000000e+00	1.000000e+00	1.000000e+00	1.000000e+00	1.000000e+00	1.000000e+00	1.000000e+00	1.000000e+00	1.000000e+00	1.000000e+00	1.000000e+00	1.000000e+00	1.000000e+00	1.000000e+00	1.000000e+00	1.000000e+00	1.000000e+00	9.779730e-01	9.823466e-01	9.872805e-01	9.958903e-01	1.004322e+00	1.010878e+00	1.014875e+00	1.017666e+00	1.018235e+00	1.013907e+00	1.005730e+00	9.990161e-01	9.966378e-01	9.966533e-01	9.974561e-01	9.984046e-01	9.993839e-01	1.000247e+00	1.000895e+00	1.001291e+00	1.001432e+00	1.001292e+00	1.000903e+00	1.000266e+00	9.994101e-01	9.984060e-01	9.973505e-01	9.963132e-01	9.953351e-01	9.944116e-01	9.934762e-01	9.923756e-01	9.908362e-01	9.885118e-01	9.856190e-01	9.833347e-01	9.825126e-01	9.824287e-01	9.828867e-01	9.846074e-01	9.885196e-01	9.948929e-01	1.003437e+00	1.013347e+00	1.022615e+00	1.028144e+00	1.029623e+00	1.029745e+00	1.028027e+00	1.022267e+00	1.012589e+00	1.004542e+00	1.001131e+00	1.000254e+00	1.000065e+00	1.000019e+00	1.000006e+00	1.000001e+00	1.000000e+00	1.000000e+00	1.000000e+00	1.000000e+00	1.000000e+00	1.000000e+00	1.000000e+00	1.000000e+00	1.000000e+00	1.000000e+00	1.000000e+00	1.000000e+00	1.000000e+00	1.000000e+00	1.000000e+00	1.000000e+00	1.000000e+00	1.000000e+00	1.000000e+00	1.000000e+00	1.000000e+00	1.000000e+00	1.000000e+00	1.000000e+00	1.000000e+00	1.000000e+00	1.000000e+00	1.000000e+00	1.000000e+00	1.000000e+00	1.000000e+00	1.000000e+00	1.000000e+00	1.000000e+00	1.000000e+00	1.000000e+00	1.000000e+00	1.000000e+00	1.000000e+00	1.000000e+00	1.000000e+00	1.000000e+00	1.000000e+00	9.745561e-01	9.788500e-01	9.842134e-01	9.929011e-01	1.002124e+00	1.010463e+00	1.015840e+00	1.018657e+00	1.019529e+00	1.016211e+00	1.008436e+00	1.000622e+00	9.966533e-01	9.957022e-01	9.957695e-01	9.960853e-01	9.964619e-01	9.968266e-01	9.971287e-01	9.973197e-01	9.973893e-01	9.973236e-01	9.971429e-01	9.968489e-01	9.964804e-01	9.960670e-01	9.956375e-01	9.951916e-01	9.947133e-01	9.941858e-01	9.935675e-01	9.927589e-01	9.915779e-01	9.897557e-01	9.871754e-01	9.844804e-01	9.829719e-01	9.826554e-01	9.827494e-01	9.838590e-01	9.868655e-01	9.923891e-01	1.000321e+00	1.009985e+00	1.019768e+00	1.026632e+00	1.029048e+00	1.029393e+00	1.028516e+00	1.024185e+00	1.015466e+00	1.006472e+00	1.001781e+00	1.000397e+00	1.000093e+00	1.000026e+00	1.000007e+00	1.000002e+00	1.000000e+00	1.000000e+00	1.000000e+00	1.000000e+00	1.000000e+00	1.000000e+00	1.000000e+00	1.000000e+00	1.000000e+00	1.000000e+00	1.000000e+00	1.000000e+00	1.000000e+00	1.000000e+00	1.000000e+00	1.000000e+00	1.000000e+00	1.000000e+00	1.000000e+00	1.000000e+00	1.000000e+00	1.000000e+00	1.000000e+00	1.000000e+00	1.000000e+00	1.000000e+00	1.000000e+00	1.000000e+00	1.000000e+00	1.000000e+00	1.000000e+00	1.000000e+00	1.000000e+00	1.000000e+00	1.000000e+00	1.000000e+00	1.000000e+00	1.000000e+00	1.000000e+00	1.000000e+00	1.000000e+00	1.000000e+00	1.000000e+00	9.722287e-01	9.763059e-01	9.817878e-01	9.904265e-01	1.000299e+00	1.009989e+00	1.016356e+00	1.019223e+00	1.020259e+00	1.017925e+00	1.010958e+00	1.002557e+00	9.974561e-01	9.957695e-01	9.955100e-01	9.955935e-01	9.957386e-01	9.958816e-01	9.960002e-01	9.960760e-01	9.961070e-01	9.960833e-01	9.960182e-01	9.959065e-01	9.957521e-01	9.955569e-01	9.953202e-01	9.950424e-01	9.947103e-01	9.943048e-01	9.938054e-01	9.931357e-01	9.921597e-01	9.906617e-01	9.884083e-01	9.856537e-01	9.835785e-01	9.829150e-01	9.828682e-01	9.835000e-01	9.857433e-01	9.904666e-01	9.977632e-01	1.007097e+00	1.017106e+00	1.024994e+00	1.028422e+00	1.029020e+00	1.028646e+00	1.025428e+00	1.017807e+00	1.008453e+00	1.002591e+00	1.000593e+00	1.000132e+00	1.000034e+00	1.000010e+00	1.000003e+00	1.000001e+00	1.000000e+00	1.000000e+00	1.000000e+00	1.000000e+00	1.000000e+00	1.000000e+00	1.000000e+00	1.000000e+00	1.000000e+00	1.000000e+00	1.000000e+00	1.000000e+00	1.000000e+00	1.000000e+00	1.000000e+00	1.000000e+00	1.000000e+00	1.000000e+00	1.000000e+00	1.000000e+00	1.000000e+00	1.000000e+00	1.000000e+00	1.000000e+00	1.000000e+00	1.000000e+00	1.000000e+00	1.000000e+00	1.000000e+00	1.000000e+00	1.000000e+00	1.000000e+00	1.000000e+00	1.000000e+00	1.000000e+00	1.000000e+00	1.000000e+00	1.000000e+00	1.000000e+00	1.000000e+00	1.000000e+00	1.000000e+00	9.707925e-01	9.745426e-01	9.799165e-01	9.884379e-01	9.988288e-01	1.009416e+00	1.016576e+00	1.019558e+00	1.020675e+00	1.019040e+00	1.012980e+00	1.004466e+00	9.984046e-01	9.960853e-01	9.955935e-01	9.955904e-01	9.956753e-01	9.957627e-01	9.958327