# vtk DataFile Version 3.0
vtk output
ASCII
DATASET STRUCTURED_GRID
DIMENSIONS 101 101 1
POINTS 10201 double
0.000000e+00	0.000000e+00	0.0	1.000000e-02	0.000000e+00	0.0	2.000000e-02	0.000000e+00	0.0	3.000000e-02	0.000000e+00	0.0	4.000000e-02	0.000000e+00	0.0	5.000000e-02	0.000000e+00	0.0	6.000000e-02	0.000000e+00	0.0	7.000000e-02	0.000000e+00	0.0	8.000000e-02	0.000000e+00	0.0	9.000000e-02	0.000000e+00	0.0	1.000000e-01	0.000000e+00	0.0	1.100000e-01	0.000000e+00	0.0	1.200000e-01	0.000000e+00	0.0	1.300000e-01	0.000000e+00	0.0	1.400000e-01	0.000000e+00	0.0	1.500000e-01	0.000000e+00	0.0	1.600000e-01	0.000000e+00	0.0	1.700000e-01	0.000000e+00	0.0	1.800000e-01	0.000000e+00	0.0	1.900000e-01	0.000000e+00	0.0	2.000000e-01	0.000000e+00	0.0	2.100000e-01	0.000000e+00	0.0	2.200000e-01	0.000000e+00	0.0	2.300000e-01	0.000000e+00	0.0	2.400000e-01	0.000000e+00	0.0	2.500000e-01	0.000000e+00	0.0	2.600000e-01	0.000000e+00	0.0	2.700000e-01	0.000000e+00	0.0	2.800000e-01	0.000000e+00	0.0	2.900000e-01	0.000000e+00	0.0	3.000000e-01	0.000000e+00	0.0	3.100000e-01	0.000000e+00	0.0	3.200000e-01	0.000000e+00	0.0	3.300000e-01	0.000000e+00	0.0	3.400000e-01	0.000000e+00	0.0	3.500000e-01	0.000000e+00	0.0	3.600000e-01	0.000000e+00	0.0	3.700000e-01	0.000000e+00	0.0	3.800000e-01	0.000000e+00	0.0	3.900000e-01	0.000000e+00	0.0	4.000000e-01	0.000000e+00	0.0	4.100000e-01	0.000000e+00	0.0	4.200000e-01	0.000000e+00	0.0	4.300000e-01	0.000000e+00	0.0	4.400000e-01	0.000000e+00	0.0	4.500000e-01	0.000000e+00	0.0	4.600000e-01	0.000000e+00	0.0	4.700000e-01	0.000000e+00	0.0	4.800000e-01	0.000000e+00	0.0	4.900000e-01	0.000000e+00	0.0	5.000000e-01	0.000000e+00	0.0	5.100000e-01	0.000000e+00	0.0	5.200000e-01	0.000000e+00	0.0	5.300000e-01	0.000000e+00	0.0	5.400000e-01	0.000000e+00	0.0	5.500000e-01	0.000000e+00	0.0	5.600000e-01	0.000000e+00	0.0	5.700000e-01	0.000000e+00	0.0	5.800000e-01	0.000000e+00	0.0	5.900000e-01	0.000000e+00	0.0	6.000000e-01	0.000000e+00	0.0	6.100000e-01	0.000000e+00	0.0	6.200000e-01	0.000000e+00	0.0	6.300000e-01	0.000000e+00	0.0	6.400000e-01	0.000000e+00	0.0	6.500000e-01	0.000000e+00	0.0	6.600000e-01	0.000000e+00	0.0	6.700000e-01	0.000000e+00	0.0	6.800000e-01	0.000000e+00	0.0	6.900000e-01	0.000000e+00	0.0	7.000000e-01	0.000000e+00	0.0	7.100000e-01	0.000000e+00	0.0	7.200000e-01	0.000000e+00	0.0	7.300000e-01	0.000000e+00	0.0	7.400000e-01	0.000000e+00	0.0	7.500000e-01	0.000000e+00	0.0	7.600000e-01	0.000000e+00	0.0	7.700000e-01	0.000000e+00	0.0	7.800000e-01	0.000000e+00	0.0	7.900000e-01	0.000000e+00	0.0	8.000000e-01	0.000000e+00	0.0	8.100000e-01	0.000000e+00	0.0	8.200000e-01	0.000000e+00	0.0	8.300000e-01	0.000000e+00	0.0	8.400000e-01	0.000000e+00	0.0	8.500000e-01	0.000000e+00	0.0	8.600000e-01	0.000000e+00	0.0	8.700000e-01	0.000000e+00	0.0	8.800000e-01	0.000000e+00	0.0	8.900000e-01	0.000000e+00	0.0	9.000000e-01	0.000000e+00	0.0	9.100000e-01	0.000000e+00	0.0	9.200000e-01	0.000000e+00	0.0	9.300000e-01	0.000000e+00	0.0	9.400000e-01	0.000000e+00	0.0	9.500000e-01	0.000000e+00	0.0	9.600000e-01	0.000000e+00	0.0	9.700000e-01	0.000000e+00	0.0	9.800000e-01	0.000000e+00	0.0	9.900000e-01	0.000000e+00	0.0	1.000000e+00	0.000000e+00	0.0	0.000000e+00	1.000000e-02	0.0	1.000000e-02	1.000000e-02	0.0	2.000000e-02	1.000000e-02	0.0	3.000000e-02	1.000000e-02	0.0	4.000000e-02	1.000000e-02	0.0	5.000000e-02	1.000000e-02	0.0	6.000000e-02	1.000000e-02	0.0	7.000000e-02	1.000000e-02	0.0	8.000000e-02	1.000000e-02	0.0	9.000000e-02	1.000000e-02	0.0	1.000000e-01	1.000000e-02	0.0	1.100000e-01	1.000000e-02	0.0	1.200000e-01	1.000000e-02	0.0	1.300000e-01	1.000000e-02	0.0	1.400000e-01	1.000000e-02	0.0	1.500000e-01	1.000000e-02	0.0	1.600000e-01	1.000000e-02	0.0	1.700000e-01	1.000000e-02	0.0	1.800000e-01	1.000000e-02	0.0	1.900000e-01	1.000000e-02	0.0	2.000000e-01	1.000000e-02	0.0	2.100000e-01	1.000000e-02	0.0	2.200000e-01	1.000000e-02	0.0	2.300000e-01	1.000000e-02	0.0	2.400000e-01	1.000000e-02	0.0	2.500000e-01	1.000000e-02	0.0	2.600000e-01	1.000000e-02	0.0	2.700000e-01	1.000000e-02	0.0	2.800000e-01	1.000000e-02	0.0	2.900000e-01	1.000000e-02	0.0	3.000000e-01	1.000000e-02	0.0	3.100000e-01	1.000000e-02	0.0	3.200000e-01	1.000000e-02	0.0	3.300000e-01	1.000000e-02	0.0	3.400000e-01	1.000000e-02	0.0	3.500000e-01	1.000000e-02	0.0	3.600000e-01	1.000000e-02	0.0	3.700000e-01	1.000000e-02	0.0	3.800000e-01	1.000000e-02	0.0	3.900000e-01	1.000000e-02	0.0	4.000000e-01	1.000000e-02	0.0	4.100000e-01	1.000000e-02	0.0	4.200000e-01	1.000000e-02	0.0	4.300000e-01	1.000000e-02	0.0	4.400000e-01	1.000000e-02	0.0	4.500000e-01	1.000000e-02	0.0	4.600000e-01	1.000000e-02	0.0	4.700000e-01	1.000000e-02	0.0	4.800000e-01	1.000000e-02	0.0	4.900000e-01	1.000000e-02	0.0	5.000000e-01	1.000000e-02	0.0	5.100000e-01	1.000000e-02	0.0	5.200000e-01	1.000000e-02	0.0	5.300000e-01	1.000000e-02	0.0	5.400000e-01	1.000000e-02	0.0	5.500000e-01	1.000000e-02	0.0	5.600000e-01	1.000000e-02	0.0	5.700000e-01	1.000000e-02	0.0	5.800000e-01	1.000000e-02	0.0	5.900000e-01	1.000000e-02	0.0	6.000000e-01	1.000000e-02	0.0	6.100000e-01	1.000000e-02	0.0	6.200000e-01	1.000000e-02	0.0	6.300000e-01	1.000000e-02	0.0	6.400000e-01	1.000000e-02	0.0	6.500000e-01	1.000000e-02	0.0	6.600000e-01	1.000000e-02	0.0	6.700000e-01	1.000000e-02	0.0	6.800000e-01	1.000000e-02	0.0	6.900000e-01	1.000000e-02	0.0	7.000000e-01	1.000000e-02	0.0	7.100000e-01	1.000000e-02	0.0	7.200000e-01	1.000000e-02	0.0	7.300000e-01	1.000000e-02	0.0	7.400000e-01	1.000000e-02	0.0	7.500000e-01	1.000000e-02	0.0	7.600000e-01	1.000000e-02	0.0	7.700000e-01	1.000000e-02	0.0	7.800000e-01	1.000000e-02	0.0	7.900000e-01	1.000000e-02	0.0	8.000000e-01	1.000000e-02	0.0	8.100000e-01	1.000000e-02	0.0	8.200000e-01	1.000000e-02	0.0	8.300000e-01	1.000000e-02	0.0	8.400000e-01	1.000000e-02	0.0	8.500000e-01	1.000000e-02	0.0	8.600000e-01	1.000000e-02	0.0	8.700000e-01	1.000000e-02	0.0	8.800000e-01	1.000000e-02	0.0	8.900000e-01	1.000000e-02	0.0	9.000000e-01	1.000000e-02	0.0	9.100000e-01	1.000000e-02	0.0	9.200000e-01	1.000000e-02	0.0	9.300000e-01	1.000000e-02	0.0	9.400000e-01	1.000000e-02	0.0	9.500000e-01	1.000000e-02	0.0	9.600000e-01	1.000000e-02	0.0	9.700000e-01	1.000000e-02	0.0	9.800000e-01	1.000000e-02	0.0	9.900000e-01	1.000000e-02	0.0	1.000000e+00	1.000000e-02	0.0	0.000000e+00	2.000000e-02	0.0	1.000000e-02	2.000000e-02	0.0	2.000000e-02	2.000000e-02	0.0	3.000000e-02	2.000000e-02	0.0	4.000000e-02	2.000000e-02	0.0	5.000000e-02	2.000000e-02	0.0	6.000000e-02	2.000000e-02	0.0	7.000000e-02	2.000000e-02	0.0	8.000000e-02	2.000000e-02	0.0	9.000000e-02	2.000000e-02	0.0	1.000000e-01	2.000000e-02	0.0	1.100000e-01	2.000000e-02	0.0	1.200000e-01	2.000000e-02	0.0	1.300000e-01	2.000000e-02	0.0	1.400000e-01	2.000000e-02	0.0	1.500000e-01	2.000000e-02	0.0	1.600000e-01	2.000000e-02	0.0	1.700000e-01	2.000000e-02	0.0	1.800000e-01	2.000000e-02	0.0	1.900000e-01	2.000000e-02	0.0	2.000000e-01	2.000000e-02	0.0	2.100000e-01	2.000000e-02	0.0	2.200000e-01	2.000000e-02	0.0	2.300000e-01	2.000000e-02	0.0	2.400000e-01	2.000000e-02	0.0	2.500000e-01	2.000000e-02	0.0	2.600000e-01	2.000000e-02	0.0	2.700000e-01	2.000000e-02	0.0	2.800000e-01	2.000000e-02	0.0	2.900000e-01	2.000000e-02	0.0	3.000000e-01	2.000000e-02	0.0	3.100000e-01	2.000000e-02	0.0	3.200000e-01	2.000000e-02	0.0	3.300000e-01	2.000000e-02	0.0	3.400000e-01	2.000000e-02	0.0	3.500000e-01	2.000000e-02	0.0	3.600000e-01	2.000000e-02	0.0	3.700000e-01	2.000000e-02	0.0	3.800000e-01	2.000000e-02	0.0	3.900000e-01	2.000000e-02	0.0	4.000000e-01	2.000000e-02	0.0	4.100000e-01	2.000000e-02	0.0	4.200000e-01	2.000000e-02	0.0	4.300000e-01	2.000000e-02	0.0	4.400000e-01	2.000000e-02	0.0	4.500000e-01	2.000000e-02	0.0	4.600000e-01	2.000000e-02	0.0	4.700000e-01	2.000000e-02	0.0	4.800000e-01	2.000000e-02	0.0	4.900000e-01	2.000000e-02	0.0	5.000000e-01	2.000000e-02	0.0	5.100000e-01	2.000000e-02	0.0	5.200000e-01	2.000000e-02	0.0	5.300000e-01	2.000000e-02	0.0	5.400000e-01	2.000000e-02	0.0	5.500000e-01	2.000000e-02	0.0	5.600000e-01	2.000000e-02	0.0	5.700000e-01	2.000000e-02	0.0	5.800000e-01	2.000000e-02	0.0	5.900000e-01	2.000000e-02	0.0	6.000000e-01	2.000000e-02	0.0	6.100000e-01	2.000000e-02	0.0	6.200000e-01	2.000000e-02	0.0	6.300000e-01	2.000000e-02	0.0	6.400000e-01	2.000000e-02	0.0	6.500000e-01	2.000000e-02	0.0	6.600000e-01	2.000000e-02	0.0	6.700000e-01	2.000000e-02	0.0	6.800000e-01	2.000000e-02	0.0	6.900000e-01	2.000000e-02	0.0	7.000000e-01	2.000000e-02	0.0	7.100000e-01	2.000000e-02	0.0	7.200000e-01	2.000000e-02	0.0	7.300000e-01	2.000000e-02	0.0	7.400000e-01	2.000000e-02	0.0	7.500000e-01	2.000000e-02	0.0	7.600000e-01	2.000000e-02	0.0	7.700000e-01	2.000000e-02	0.0	7.800000e-01	2.000000e-02	0.0	7.900000e-01	2.000000e-02	0.0	8.000000e-01	2.000000e-02	0.0	8.100000e-01	2.000000e-02	0.0	8.200000e-01	2.000000e-02	0.0	8.300000e-01	2.000000e-02	0.0	8.400000e-01	2.000000e-02	0.0	8.500000e-01	2.000000e-02	0.0	8.600000e-01	2.000000e-02	0.0	8.700000e-01	2.000000e-02	0.0	8.800000e-01	2.000000e-02	0.0	8.900000e-01	2.000000e-02	0.0	9.000000e-01	2.000000e-02	0.0	9.100000e-01	2.000000e-02	0.0	9.200000e-01	2.000000e-02	0.0	9.300000e-01	2.000000e-02	0.0	9.400000e-01	2.000000e-02	0.0	9.500000e-01	2.000000e-02	0.0	9.600000e-01	2.000000e-02	0.0	9.700000e-01	2.000000e-02	0.0	9.800000e-01	2.000000e-02	0.0	9.900000e-01	2.000000e-02	0.0	1.000000e+00	2.000000e-02	0.0	0.000000e+00	3.000000e-02	0.0	1.000000e-02	3.000000e-02	0.0	2.000000e-02	3.000000e-02	0.0	3.000000e-02	3.000000e-02	0.0	4.000000e-02	3.000000e-02	0.0	5.000000e-02	3.000000e-02	0.0	6.000000e-02	3.000000e-02	0.0	7.000000e-02	3.000000e-02	0.0	8.000000e-02	3.000000e-02	0.0	9.000000e-02	3.000000e-02	0.0	1.000000e-01	3.000000e-02	0.0	1.100000e-01	3.000000e-02	0.0	1.200000e-01	3.000000e-02	0.0	1.300000e-01	3.000000e-02	0.0	1.400000e-01	3.000000e-02	0.0	1.500000e-01	3.000000e-02	0.0	1.600000e-01	3.000000e-02	0.0	1.700000e-01	3.000000e-02	0.0	1.800000e-01	3.000000e-02	0.0	1.900000e-01	3.000000e-02	0.0	2.000000e-01	3.000000e-02	0.0	2.100000e-01	3.000000e-02	0.0	2.200000e-01	3.000000e-02	0.0	2.300000e-01	3.000000e-02	0.0	2.400000e-01	3.000000e-02	0.0	2.500000e-01	3.000000e-02	0.0	2.600000e-01	3.000000
[...]
POINT_DATA 10201

SCALARS Height double 1
LOOKUP_TABLE default
9.992992e-01	9.993014e-01	9.993044e-01	9.993034e-01	9.993029e-01	9.993011e-01	9.992980e-01	9.992926e-01	9.992894e-01	9.992887e-01	9.992889e-01	9.992890e-01	9.992882e-01	9.992868e-01	9.992849e-01	9.992834e-01	9.992826e-01	9.992860e-01	9.992883e-01	9.992901e-01	9.992903e-01	9.992847e-01	9.992751e-01	9.992616e-01	9.992457e-01	9.992323e-01	9.992227e-01	9.992145e-01	9.992089e-01	9.992053e-01	9.992024e-01	9.991989e-01	9.991937e-01	9.991869e-01	9.991790e-01	9.991708e-01	9.991633e-01	9.991565e-01	9.991496e-01	9.991421e-01	9.991329e-01	9.991210e-01	9.991054e-01	9.990858e-01	9.990639e-01	9.990441e-01	9.990307e-01	9.990251e-01	9.990513e-01	9.991664e-01	9.995032e-01	1.000465e+00	1.002775e+00	1.006895e+00	1.011982e+00	1.016036e+00	1.018023e+00	1.018448e+00	1.018252e+00	1.017279e+00	1.015189e+00	1.011884e+00	1.007744e+00	1.003331e+00	9.991276e-01	9.954468e-01	9.924903e-01	9.904090e-01	9.892143e-01	9.887292e-01	9.886150e-01	9.886629e-01	9.889501e-01	9.895834e-01	9.905511e-01	9.916401e-01	9.926160e-01	9.933531e-01	9.938367e-01	9.941026e-01	9.941825e-01	9.940876e-01	9.937932e-01	9.932563e-01	9.924384e-01	9.913704e-01	9.902123e-01	9.892216e-01	9.886006e-01	9.883796e-01	9.886090e-01	9.896288e-01	9.923444e-01	9.976293e-01	1.004983e+00	1.012521e+00	1.018731e+00	1.023609e+00	1.027852e+00	1.030966e+00	1.031966e+00	9.993110e-01	9.993079e-01	9.993084e-01	9.993037e-01	9.993013e-01	9.992991e-01	9.992970e-01	9.992947e-01	9.992932e-01	9.992934e-01	9.992940e-01	9.992945e-01	9.992939e-01	9.992919e-01	9.992883e-01	9.992843e-01	9.992772e-01	9.992801e-01	9.992768e-01	9.992755e-01	9.992738e-01	9.992687e-01	9.992642e-01	9.992531e-01	9.992408e-01	9.992336e-01	9.992251e-01	9.992182e-01	9.992127e-01	9.992086e-01	9.992051e-01	9.992007e-01	9.991948e-01	9.991875e-01	9.991795e-01	9.991711e-01	9.991630e-01	9.991554e-01	9.991479e-01	9.991401e-01	9.991308e-01	9.991189e-01	9.991031e-01	9.990829e-01	9.990601e-01	9.990397e-01	9.990244e-01	9.990137e-01	9.990168e-01	9.990718e-01	9.993376e-01	1.000261e+00	1.002684e+00	1.007077e+00	1.012252e+00	1.016180e+00	1.018039e+00	1.018460e+00	1.018360e+00	1.017500e+00	1.015301e+00	1.011885e+00	1.007702e+00	1.003290e+00	9.990812e-01	9.953817e-01	9.924263e-01	9.903718e-01	9.892099e-01	9.887261e-01	9.885924e-01	9.885836e-01	9.888545e-01	9.895274e-01	9.905251e-01	9.916270e-01	9.926060e-01	9.933427e-01	9.938259e-01	9.940916e-01	9.941722e-01	9.940786e-01	9.937862e-01	9.932502e-01	9.924295e-01	9.913529e-01	9.901798e-01	9.891547e-01	9.884877e-01	9.882460e-01	9.884603e-01	9.894237e-01	9.921940e-01	9.976960e-01	1.005201e+00	1.012648e+00	1.018731e+00	1.023568e+00	1.027885e+00	1.031145e+00	1.032369e+00	9.993176e-01	9.993121e-01	9.993145e-01	9.993091e-01	9.993078e-01	9.993060e-01	9.993029e-01	9.992997e-01	9.992971e-01	9.992970e-01	9.992976e-01	9.992973e-01	9.992955e-01	9.992925e-01	9.992887e-01	9.992851e-01	9.992801e-01	9.992814e-01	9.992801e-01	9.992805e-01	9.992798e-01	9.992739e-01	9.992677e-01	9.992560e-01	9.992457e-01	9.992362e-01	9.992298e-01	9.992243e-01	9.992206e-01	9.992177e-01	9.992140e-01	9.992088e-01	9.992017e-01	9.991931e-01	9.991835e-01	9.991742e-01	9.991656e-01	9.991579e-01	9.991507e-01	9.991431e-01	9.991341e-01	9.991222e-01	9.991066e-01	9.990874e-01	9.990648e-01	9.990444e-01	9.990273e-01	9.990156e-01	9.990152e-01	9.990623e-01	9.993135e-01	1.000257e+00	1.002793e+00	1.007302e+00	1.012388e+00	1.016106e+00	1.017867e+00	1.018305e+00	1.018245e+00	1.017516e+00	1.015293e+00	1.011805e+00	1.007669e+00	1.003344e+00	9.991872e-01	9.955053e-01	9.925633e-01	9.905111e-01	9.893300e-01	9.888140e-01	9.886607e-01	9.886301e-01	9.888615e-01	9.895501e-01	9.905594e-01	9.916438e-01	9.926028e-01	9.933298e-01	9.938105e-01	9.940758e-01	9.941567e-01	9.940633e-01	9.937712e-01	9.932374e-01	9.924270e-01	9.913683e-01	9.902043e-01	9.891639e-01	9.884867e-01	9.882831e-01	9.884979e-01	9.894959e-01	9.923867e-01	9.980133e-01	1.005442e+00	1.012663e+00	1.018609e+00	1.023415e+00	1.027689e+00	1.031063e+00	1.032388e+00	9.993199e-01	9.993079e-01	9.993117e-01	9.993083e-01	9.993078e-01	9.993059e-01	9.993027e-01	9.992989e-01	9.992974e-01	9.992980e-01	9.992991e-01	9.992993e-01	9.992979e-01	9.992948e-01	9.992905e-01	9.992867e-01	9.992810e-01	9.992823e-01	9.992802e-01	9.992796e-01	9.992785e-01	9.992727e-01	9.992674e-01	9.992566e-01	9.992473e-01	9.992401e-01	9.992333e-01	9.992280e-01	9.992241e-01	9.992205e-01	9.992160e-01	9.992098e-01	9.992018e-01	9.991925e-01	9.991827e-01	9.991735e-01	9.991651e-01	9.991575e-01	9.991505e-01	9.991432e-01	9.991342e-01	9.991223e-01	9.991068e-01	9.990876e-01	9.990650e-01	9.990445e-01	9.990270e-01	9.990134e-01	9.990096e-01	9.990466e-01	9.992745e-01	1.000204e+00	1.002788e+00	1.007365e+00	1.012444e+00	1.016070e+00	1.017756e+00	1.018184e+00	1.018139e+00	1.017524e+00	1.015394e+00	1.011839e+00	1.007671e+00	1.003390e+00	9.992800e-01	9.956215e-01	9.926847e-01	9.906245e-01	9.894266e-01	9.888934e-01	9.887294e-01	9.886860e-01	9.888595e-01	9.895155e-01	9.905326e-01	9.916139e-01	9.925631e-01	9.932890e-01	9.937741e-01	9.940435e-01	9.941262e-01	9.940310e-01	9.937342e-01	9.931952e-01	9.923858e-01	9.913350e-01	9.901693e-01	9.891198e-01	9.884828e-01	9.883315e-01	9.885418e-01	9.895486e-01	9.924967e-01	9.982046e-01	1.005633e+00	1.012744e+00	1.018580e+00	1.023326e+00	1.027572e+00	1.031103e+00	1.032553e+00	9.993255e-01	9.993106e-01	9.993140e-01	9.993111e-01	9.993098e-01	9.993079e-01	9.993047e-01	9.993007e-01	9.992983e-01	9.992986e-01	9.992997e-01	9.992998e-01	9.992979e-01	9.992945e-01	9.992902e-01	9.992859e-01	9.992807e-01	9.992819e-01	9.992797e-01	9.992784e-01	9.992772e-01	9.992719e-01	9.992670e-01	9.992567e-01	9.992478e-01	9.992411e-01	9.992355e-01	9.992306e-01	9.992265e-01	9.992221e-01	9.992166e-01	9.992095e-01	9.992012e-01	9.991918e-01	9.991820e-01	9.991727e-01	9.991642e-01	9.991567e-01	9.991500e-01	9.991433e-01	9.991351e-01	9.991239e-01	9.991090e-01	9.990907e-01	9.990686e-01	9.990479e-01	9.990299e-01	9.990152e-01	9.990094e-01	9.990426e-01	9.992607e-01	1.000176e+00	1.002769e+00	1.007373e+00	1.012414e+00	1.015972e+00	1.017616e+00	1.018033e+00	1.017993e+00	1.017469e+00	1.015499e+00	1.011956e+00	1.007734e+00	1.003474e+00	9.994118e-01	9.957879e-01	9.928543e-01	9.907766e-01	9.895528e-01	9.889967e-01	9.888172e-01	9.887637e-01	9.888869e-01	9.894783e-01	9.904828e-01	9.915684e-01	9.925117e-01	9.932353e-01	9.937264e-01	9.940034e-01	9.940897e-01	9.939912e-01	9.936860e-01	9.931398e-01	9.923312e-01	9.912827e-01	9.901097e-01	9.890788e-01	9.885113e-01	9.884055e-01	9.886242e-01	9.896449e-01	9.926303e-01	9.983754e-01	1.005789e+00	1.012824e+00	1.018562e+00	1.023238e+00	1.027489e+00	1.031155e+00	1.032711e+00	9.993291e-01	9.993164e-01	9.993168e-01	9.993138e-01	9.993117e-01	9.993095e-01	9.993061e-01	9.993023e-01	9.992996e-01	9.992984e-01	9.992983e-01	9.992978e-01	9.992960e-01	9.992929e-01	9.992889e-01	9.992850e-01	9.992801e-01	9.992815e-01	9.992800e-01	9.992787e-01	9.992776e-01	9.992727e-01	9.992676e-01	9.992570e-01	9.992480e-01	9.992419e-01	9.992365e-01	9.992318e-01	9.992272e-01	9.992218e-01	9.992153e-01	9.992078e-01	9.991994e-01	9.991905e-01	9.991810e-01	9.991718e-01	9.991635e-01	9.991564e-01	9.991501e-01	9.991437e-01	9.991360e-01	9.991253e-01	9.991110e-01	9.990933e-01	9.990715e-01	9.990505e-01	9.990319e-01	9.990163e-01	9.990094e-01	9.990415e-01	9.992579e-01	1.000168e+00	1.002750e+00	1.007329e+00	1.012319e+00	1.015818e+00	1.017438e+00	1.017857e+00	1.017825e+00	1.017364e+00	1.015562e+00	1.012124e+00	1.007880e+00	1.003601e+00	9.995758e-01	9.959840e-01	9.930465e-01	9.909423e-01	9.896855e-01	9.891004e-01	9.889028e-01	9.888398e-01	9.889195e-01	9.894295e-01	9.903951e-01	9.914885e-01	9.924398e-01	9.931650e-01	9.936631e-01	9.939503e-01	9.940411e-01	9.939377e-01	9.936215e-01	9.930670e-01	9.922538e-01	9.911935e-01	9.900147e-01	9.890332e-01	9.885464e-01	9.884825e-01	9.887178e-01	9.897622e-01	9.927754e-01	9.985183e-01	1.005889e+00	1.012862e+00	1.018538e+00	1.023180e+00	1.027470e+00	1.031192e+00	1.032791e+00	9.993260e-01	9.993156e-01	9.993173e-01	9.993149e-01	9.993126e-01	9.993101e-01	9.993065e-01	9.993018e-01	9.992983e-01	9.992962e-01	9.992948e-01	9.992939e-01	9.992926e-01	9.992903e-01	9.992870e-01	9.992836e-01	9.992787e-01	9.992803e-01	9.992799e-01	9.992793e-01	9.992781e-01	9.992731e-01	9.992666e-01	9.992563e-01	9.992471e-01	9.992406e-01	9.992350e-01	9.992298e-01	9.992244e-01	9.992184e-01	9.992118e-01	9.992046e-01	9.991970e-01	9.991886e-01	9.991794e-01	9.991705e-01	9.991625e-01	9.991556e-01	9.991494e-01	9.991431e-01	9.991356e-01	9.991254e-01	9.991117e-01	9.990943e-01	9.990727e-01	9.990515e-01	9.990322e-01	9.990160e-01	9.990092e-01	9.990426e-01	9.992633e-01	1.000177e+00	1.002738e+00	1.007250e+00	1.012162e+00	1.015609e+00	1.017214e+00	1.017641e+00	1.017622e+00	1.017219e+00	1.015573e+00	1.012293e+00	1.008085e+00	1.003785e+00	9.997807e-01	9.962170e-01	9.932754e-01	9.911366e-01	9.898339e-01	9.892082e-01	9.889859e-01	9.889124e-01	9.889520e-01	9.893722e-01	9.902724e-01	9.913693e-01	9.923419e-01	9.930775e-01	9.935827e-01	9.938780e-01	9.939724e-01	9.938640e-01	9.935390e-01	9.929754e-01	9.921477e-01	9.910650e-01	9.898908e-01	9.889858e-01	9.885849e-01	9.885595e-01	9.888204e-01	9.899076e-01	9.929491e-01	9.986649e-01	1.005968e+00	1.012871e+00	1.018500e+00	1.023147e+00	1.027471e+00	1.031176e+00	1.032774e+00	9.993159e-01	9.993117e-01	9.993133e-01	9.993121e-01	9.993100e-01	9.993071e-01	9.993039e-01	9.992997e-01	9.992959e-01	9.992931e-01	9.992911e-01	9.992901e-01	9.992892e-01	9.992879e-01	9.992856e-01	9.992827e-01	9.992799e-01	9.992787e-01	9.992801e-01	9.992788e-01	9.992773e-01	9.992722e-01	9.992646e-01	9.992554e-01	9.992463e-01	9.992389e-01	9.992322e-01	9.992261e-01	9.992202e-01	9.992142e-01	9.992082e-01	9.992016e-01	9.991940e-01	9.991856e-01	9.991765e-01	9.991677e-01	9.991597e-01	9.991526e-01	9.991461e-01	9.991396e-01	9.991319e-01	9.991221e-01	9.991088e-01	9.990910e-01	9.990695e-01	9.990481e-01	9.990287e-01	9.990120e-01	9.990058e-01	9.990430e-01	9.992736e-01	1.000197e+00	1.002728e+00	1.007146e+00	1.011960e+00	1.015357e+00	1.016954e+00	1.017390e+00	1.017380e+00	1.017038e+00	1.015544e+00	1.012450e+00	1.008331e+00	1.004032e+00	1.000025e+00	9.964846e-01	9.935503e-01	9.913758e-01	9.900125e-01	9.893307e-01	9.890748e-01	9.889878e-01	9.889894e-01	9.893132e-01	9.901246e-01	9.912045e-01	9.922031e-01	9.929637e-01	9.934824e-01	9.937853e-01	9.938826e-01	9.937706e-01	9.934357e-01	9.928540e-01	9.919974e-01	9.908931e-01	9.897508e-01	9.889419e-01	9.886297e-01	9.886429e-01	9.889368e-01	9.900826e-01	9.931622e-01	9.988378e-01	1.006050e+00	1.012874e+00	1.018467e+00	1.023135e+00	1.027467e+00	1.031107e+00	1.032674e+00	9.993058e-01	9.993101e-01	9.993065e-01	9.993062e-01	9.993042e-01	9.993016e-01	9.992987e-01	9.992957e-01	9.992920e-01	9.992895e-01	9.992875e-01	9.992864e-01	9.992857e-01	9.992849e-01	9.992834e-01	9.992812e-01	9.992786e-01	9.992777e-01	9.992765e-01	9.992756e-01	9.992734e-01	9.992686e-01	9.992616e-01	9.992527e-01	9.992451e-01	9.992370e-01	9.992298e-01	9.992231e-01	9.992171e-01	9.992116e-01	9.992059e-01	9.991991e-01	9.991913e-01	9.991824e-01	9.991728e-01	9.991637e-01	9.991555e-01	9.991482e-01	9.991413e-01	9.991343e-01	9.991263e-01	9.991161e-01	9.991023e-01	9.990838e-01	9.990620e-01	9.990405e-01	9.990217e-01	9.990053e-01	9.989994e-01	9.990420e-01	9.992879e-01	1.000226e+00	1.002717e+00	1.007016e+00	1.011714e+00	1.015071e+00	1.016672e+00	1.017120e+00	1.017115e+00	1.016818e+00	1.015485e+00	1.012592e+00	1.008592e+00	1.004318e+00	1.000308e+00	9.967849e-01	9.938657e-01	9.916654e-01	9.902360e-01	9.894817e-01	9.891773e-01	9.890736e-01	9.890389e-01	9.892605e-01	9.899651e-01	9.910073e-01	9.920305e-01	9.928268e-01	9.933668e-01	9.936782e-01	9.937769e-01	9.936610e-01	9.933140e-01	9.927061e-01	9.918120e-01	9.906927e-01	9.896053e-01	9.889079e-01	9.886871e-01	9.887415e-01	9.890767e-01	9.902996e-01	9.934260e-01	9.990440e-01	1.006136e+00	1.012879e+00	1.018458e+00	1.023148e+00	1.027457e+00	1.030991e+00	1.032504e+00	9.992972e-01	9.993059e-01	9.993000e-01	9.993005e-01	9.992977e-01	9.992948e-01	9.992923e-01	9.992902e-01	9.992880e-01	9.992856e-01	9.992846e-01	9.992839e-01	9.992828e-01	9.992819e-01	9.992805e-01	9.992784e-01	9.992755e-01	9.992729e-01	9.992704e-01	9.992677e-01	9.992652e-01	9.992603e-01	9.992554e-01	9.992494e-01	9.992421e-01	9.992351e-01	9.992279e-01	9.992213e-01	9.992156e-01	9.992104e-01	9.992046e-01	9.991973e-01	9.991886e-01	9.991786e-01	9.991687e-01	9.991595e-01	9.991512e-01	9.991436e-01	9.991363e-01	9.991288e-01	9.991202e-01	9.991093e-01	9.990946e-01	9.990752e-01	9.990529e-01	9.990317e-01	9.990139e-01	9.989988e-01	9.989932e-01	9.990418e-01	9.993069e-01	1.000264e+00	1.002710e+00	1.006863e+00	1.011426e+00	1.014745e+00	1.016367e+00	1.016837e+00	1.016840e+00	1.016584e+00	1.015407e+00	1.012725e+00	1.008867e+00	1.004639e+00	1.000632e+00	9.971149e-01	9.942066e-01	9.919890e-01	9.904989e-01	9.896657e-01	9.892997e-01	9.891694e-01	9.891042e-01	9.892248e-01	9.898041e-01	9.907879e-01	9.918251e-01	9.926602e-01	9.932298e-01	9.935547e-01	9.936558e-01	9.935335e-01	9.931685e-01	9.925273e-01	9.915952e-01	9.904729e-01	9.894615e-01	9.888911e-01	9.887607e-01	9.888484e-01	9.892467e-01	9.905600e-01	9.937322e-01	9.992656e-01	1.006213e+00	1.012880e+00	1.018469e+00	1.023181e+00	1.027445e+00	1.030841e+00	1.032281e+00	9.992913e-01	9.993014e-01	9.992946e-01	9.992954e-01	9.992922e-01	9.992891e-01	9.992866e-01	9.992852e-01	9.992843e-01	9.992832e-01	9.992818e-01	9.992819e-01	9.992811e-01	9.992797e-01	9.992780e-01	9.992757e-01	9.992724e-01	9.992690e-01	9.992648e-01	9.992610e-01	9.992577e-01	9.992544e-01	9.992513e-01	9.992456e-01	9.992394e-01	9.992326e-01	9.992259e-01	9.992198e-01	9.992146e-01	9.992094e-01	9.992028e-01	9.991948e-01	9.991855e-01	9.991754e-01	9.991655e-01	9.991564e-01	9.991481e-01	9.991402e-01	9.991325e-01	9.991244e-01	9.991150e-01	9.991030e-01	9.990870e-01	9.990668e-01	9.990444e-01	9.990239e-01	9.990074e-01	9.989937e-01	9.989895e-01	9.990448e-01	9.993331e-01	1.000313e+00	1.002709e+00	1.006696e+00	1.011099e+00	1.014374e+00	1.016030e+00	1.016536e+00	1.016553e+00	1.016342e+00	1.015319e+00	1.012856e+00	1.009158e+00	1.004993e+00	1.000996e+00	9.974782e-01	9.945695e-01	9.923314e-01	9.907842e-01	9.898719e-01	9.894385e-01	9.892702e-01	9.891886e-01	9.892233e-01	9.896595e-01	9.905560e-01	9.915930e-01	9.924646e-01	9.930676e-01	9.934105e-01	9.935151e-01	9.933840e-01	9.929962e-01	9.923186e-01	9.913529e-01	9.902442e-01	9.893348e-01	9.889038e-01	9.888514e-01	9.889689e-01	9.894393e-01	9.908537e-01	9.940657e-01	9.994929e-01	1.006277e+00	1.012873e+00	1.018484e+00	1.023223e+00	1.027431e+00	1.030670e+00	1.032028e+00	9.992886e-01	9.992974e-01	9.992904e-01	9.992917e-01	9.992885e-01	9.992854e-01	9.992831e-01	9.992822e-01	9.992818e-01	9.992819e-01	9.992809e-01	9.992800e-01	9.992798e-01	9.992787e-01	9.992763e-01	9.992734e-01	9.992695e-01	9.992653e-01	9.992608e-01	9.992564e-01	9.992529e-01	9.992497e-01	9.992468e-01	9.992416e-01	9.992358e-01	9.992298e-01	9.992238e-01	9.992183e-01	9.992129e-01	9.992074e-01	9.992003e-01	9.991921e-01	9.991829e-01	9.991735e-01	9.991638e-01	9.991550e-01	9.991466e-01	9.991385e-01	9.991303e-01	9.991215e-01	9.991110e-01	9.990978e-01	9.990807e-01	9.990598e-01	9.990376e-01	9.990181e-01	9.990028e-01	9.989905e-01	9.989879e-01	9.990523e-01	9.993676e-01	1.000374e+00	1.002716e+00	1.006523e+00	1.010743e+00	1.013960e+00	1.015655e+00	1.016209e+00	1.016248e+00	1.016083e+00	1.015216e+00	1.012985e+00	1.009465e+00	1.005382e+00	1.001405e+00	9.978874e-01	9.949674e-01	9.926975e-01	9.910891e-01	9.900966e-01	9.895906e-01	9.893800e-01	9.892838e-01	9.892611e-01	9.895521e-01	9.903256e-01	9.913397e-01	9.922432e-01	9.928816e-01	9.932455e-01	9.933551e-01	9.932133e-01	9.927996e-01	9.920841e-01	9.910909e-01	9.900198e-01	9.892439e-01	9.889509e-01	9.889509e-01	9.891041e-01	9.896549e-01	9.911775e-01	9.944272e-01	9.997399e-01	1.006349e+00	1.012866e+00	1.018498e+00	1.023267e+00	1.027412e+00	1.030479e+00	1.031742e+00	9.992883e-01	9.992945e-01	9.992872e-01	9.992892e-01	9.992863e-01	9.992837e-01	9.992817e-01	9.992811e-01	9.992809e-01	9.992806e-01	9.992802e-01	9.992794e-01	9.992779e-01	9.992772e-01	9.992754e-01	9.992719e-01	9.992678e-01	9.992633e-01	9.992586e-01	9.992540e-01	9.992502e-01	9.992474e-01	9.992444e-01	9.992396e-01	9.992340e-01	9.992282e-01	9.992221e-01	9.992167e-01	9.992113e-01	9.992049e-01	9.991976e-01	9.991896e-01	9.991809e-01	9.991720e-01	9.991630e-01	9.991545e-01	9.991463e-01	9.991380e-01	9.991295e-01	9.991199e-01	9.991086e-01	9.990944e-01	9.990763e-01	9.990550e-01	9.990331e-01	9.990144e-01	9.990000e-01	9.989884e-01	9.989877e-01	9.990652e-01	9.994113e-01	1.000444e+00	1.002728e+00	1.006349e+00	1.010368e+00	1.013509e+00	1.015238e+00	1.015852e+00	1.015919e+00	1.015797e+00	1.015089e+00	1.013101e+00	1.009782e+00	1.005806e+00	1.001868e+00	9.983566e-01	9.954198e-01	9.931071e-01	9.914287e-01	9.903507e-01	9.897657e-01	9.895045e-01	9.893892e-01	9.893291e-01	9.894887e-01	9.901095e-01	9.910704e-01	9.919999e-01	9.926779e-01	9.930668e-01	9.931830e-01	9.930292e-01	9.925851e-01	9.918276e-01	9.908147e-01	9.898136e-01	9.891949e-01	9.890247e-01	9.890628e-01	9.892581e-01	9.899035e-01	9.915418e-01	9.948325e-01	1.000032e+00	1.006460e+00	1.012880e+00	1.018519e+00	1.023303e+00	1.027378e+00	1.030245e+00	1.031403e+00	9.992886e-01	9.992931e-01	9.992851e-01	9.992879e-01	9.992852e-01	9.992832e-01	9.992816e-01	9.992812e-01	9.992809e-01	9.992800e-01	9.992789e-01	9.992784e-01	9.992771e-01	9.992750e-01	9.992738e-01	9.992713e-01	9.992668e-01	9.992623e-01	9.992574e-01	9.992527e-01	9.992486e-01	9.992460e-01	9.992433e-01	9.992390e-01	9.992335e-01	9.992280e-01	9.992224e-01	9.992161e-01	9.992094e-01	9.992024e-01	9.991949e-01	9.991873e-01	9.991787e-01	9.991706e-01	9.991621e-01	9.991539e-01	9.991458e-01	9.991376e-01	9.991289e-01	9.991190e-01	9.991071e-01	9.990922e-01	9.990736e-01	9.990520e-01	9.990306e-01	9.990124e-01	9.989979e-01	9.989859e-01	9.989901e-01	9.990838e-01	9.994619e-01	1.000521e+00	1.002747e+00	1.006177e+00	1.009984e+00	1.013033e+00	1.014788e+00	1.015462e+00	1.015562e+00	1.015477e+00	1.014917e+00	1.013183e+00	1.010098e+00	1.006258e+00	1.002384e+00	9.988898e-01	9.959378e-01	9.935777e-01	9.918225e-01	9.906490e-01	9.899735e-01	9.896490e-01	9.895065e-01	9.894162e-01	9.894657e-01	9.899158e-01	9.907850e-01	9.917309e-01	9.924549e-01	9.928755e-01	9.930008e-01	9.928324e-01	9.923507e-01	9.915447e-01	9.905257e-01	9.896319e-01	9.891870e-01	9.891150e-01	9.891855e-01	9.894385e-01	9.901936e-01	9.919600e-01	9.952973e-01	1.000387e+00	1.006627e+00	1.012932e+00	1.018554e+00	1.023327e+00	1.027303e+00	1.029949e+00	1.030981e+00	9.992879e-01	9.992928e-01	9.992835e-01	9.992869e-01	9.992843e-01	9.992829e-01	9.992816e-01	9.992813e-01	9.992807e-01	9.992792e-01	9.992776e-01	9.992764e-01	9.992756e-01	9.992739e-01	9.992710e-01	9.992696e-01	9.992660e-01	9.992614e-01	9.992565e-01	9.992514e-01	9.992468e-01	9.992444e-01	9.992422e-01	9.992383e-01	9.992338e-01	9.992279e-01	9.992208e-01	9.992139e-01	9.992073e-01	9.992005e-01	9.991927e-01	9.991847e-01	9.991766e-01	9.991688e-01	9.991607e-01	9.991527e-01	9.991447e-01	9.991364e-01	9.991275e-01	9.991173e-01	9.991050e-01	9.990896e-01	9.990707e-01	9.990493e-01	9.990284e-01	9.990103e-01	9.989948e-01	9.989829e-01	9.989953e-01	9.991063e-01	9.995165e-01	1.000602e+00	1.002769e+00	1.006007e+00	1.009596e+00	1.012539e+00	1.014309e+00	1.015037e+00	1.015177e+00	1.015118e+00	1.014690e+00	1.013210e+00	1.010388e+00	1.006724e+00	1.002937e+00	9.994759e-01	9.965163e-01	9.941111e-01	9.922761e-01	9.909990e-01	9.902171e-01	9.898113e-01	9.896259e-01	9.895169e-01	9.894760e-01	9.897453e-01	9.904826e-01	9.914237e-01	9.921988e-01	9.926596e-01	9.927966e-01	9.926098e-01	9.920814e-01	9.912242e-01	9.902261e-01	9.894828e-01	9.892098e-01	9.892133e-01	9.893146e-01	9.896422e-01	9.905275e-01	9.924353e-01	9.958248e-01	1.000806e+00	1.006852e+00	1.013024e+00	1.018602e+00	1.023330e+00	1.027160e+00	1.029560e+00	1.030459e+00	9.992856e-01	9.992924e-01	9.992814e-01	9.992852e-01	9.992830e-01	9.992822e-01	9.992811e-01	9.992806e-01	9.992799e-01	9.992777e-01	9.992757e-01	9.992739e-01	9.992727e-01	9.992718e-01	9.992695e-01	9.992661e-01	9.992643e-01	9.992599e-01	9.992548