# vtk DataFile Version 3.0
vtk output
ASCII
DATASET STRUCTURED_GRID
DIMENSIONS 101 101 1
POINTS 10201 double
0.000000e+00	0.000000e+00	0.0	1.000000e-02	0.000000e+00	0.0	2.000000e-02	0.000000e+00	0.0	3.000000e-02	0.000000e+00	0.0	4.000000e-02	0.000000e+00	0.0	5.000000e-02	0.000000e+00	0.0	6.000000e-02	0.000000e+00	0.0	7.000000e-02	0.000000e+00	0.0	8.000000e-02	0.000000e+00	0.0	9.000000e-02	0.000000e+00	0.0	1.000000e-01	0.000000e+00	0.0	1.100000e-01	0.000000e+00	0.0	1.200000e-01	0.000000e+00	0.0	1.300000e-01	0.000000e+00	0.0	1.400000e-01	0.000000e+00	0.0	1.500000e-01	0.000000e+00	0.0	1.600000e-01	0.000000e+00	0.0	1.700000e-01	0.000000e+00	0.0	1.800000e-01	0.000000e+00	0.0	1.900000e-01	0.000000e+00	0.0	2.000000e-01	0.000000e+00	0.0	2.100000e-01	0.000000e+00	0.0	2.200000e-01	0.000000e+00	0.0	2.300000e-01	0.000000e+00	0.0	2.400000e-01	0.000000e+00	0.0	2.500000e-01	0.000000e+00	0.0	2.600000e-01	0.000000e+00	0.0	2.700000e-01	0.000000e+00	0.0	2.800000e-01	0.000000e+00	0.0	2.900000e-01	0.000000e+00	0.0	3.000000e-01	0.000000e+00	0.0	3.100000e-01	0.000000e+00	0.0	3.200000e-01	0.000000e+00	0.0	3.300000e-01	0.000000e+00	0.0	3.400000e-01	0.000000e+00	0.0	3.500000e-01	0.000000e+00	0.0	3.600000e-01	0.000000e+00	0.0	3.700000e-01	0.000000e+00	0.0	3.800000e-01	0.000000e+00	0.0	3.900000e-01	0.000000e+00	0.0	4.000000e-01	0.000000e+00	0.0	4.100000e-01	0.000000e+00	0.0	4.200000e-01	0.000000e+00	0.0	4.300000e-01	0.000000e+00	0.0	4.400000e-01	0.000000e+00	0.0	4.500000e-01	0.000000e+00	0.0	4.600000e-01	0.000000e+00	0.0	4.700000e-01	0.000000e+00	0.0	4.800000e-01	0.000000e+00	0.0	4.900000e-01	0.000000e+00	0.0	5.000000e-01	0.000000e+00	0.0	5.100000e-01	0.000000e+00	0.0	5.200000e-01	0.000000e+00	0.0	5.300000e-01	0.000000e+00	0.0	5.400000e-01	0.000000e+00	0.0	5.500000e-01	0.000000e+00	0.0	5.600000e-01	0.000000e+00	0.0	5.700000e-01	0.000000e+00	0.0	5.800000e-01	0.000000e+00	0.0	5.900000e-01	0.000000e+00	0.0	6.000000e-01	0.000000e+00	0.0	6.100000e-01	0.000000e+00	0.0	6.200000e-01	0.000000e+00	0.0	6.300000e-01	0.000000e+00	0.0	6.400000e-01	0.000000e+00	0.0	6.500000e-01	0.000000e+00	0.0	6.600000e-01	0.000000e+00	0.0	6.700000e-01	0.000000e+00	0.0	6.800000e-01	0.000000e+00	0.0	6.900000e-01	0.000000e+00	0.0	7.000000e-01	0.000000e+00	0.0	7.100000e-01	0.000000e+00	0.0	7.200000e-01	0.000000e+00	0.0	7.300000e-01	0.000000e+00	0.0	7.400000e-01	0.000000e+00	0.0	7.500000e-01	0.000000e+00	0.0	7.600000e-01	0.000000e+00	0.0	7.700000e-01	0.000000e+00	0.0	7.800000e-01	0.000000e+00	0.0	7.900000e-01	0.000000e+00	0.0	8.000000e-01	0.000000e+00	0.0	8.100000e-01	0.000000e+00	0.0	8.200000e-01	0.000000e+00	0.0	8.300000e-01	0.000000e+00	0.0	8.400000e-01	0.000000e+00	0.0	8.500000e-01	0.000000e+00	0.0	8.600000e-01	0.000000e+00	0.0	8.700000e-01	0.000000e+00	0.0	8.800000e-01	0.000000e+00	0.0	8.900000e-01	0.000000e+00	0.0	9.000000e-01	0.000000e+00	0.0	9.100000e-01	0.000000e+00	0.0	9.200000e-01	0.000000e+00	0.0	9.300000e-01	0.000000e+00	0.0	9.400000e-01	0.000000e+00	0.0	9.500000e-01	0.000000e+00	0.0	9.600000e-01	0.000000e+00	0.0	9.700000e-01	0.000000e+00	0.0	9.800000e-01	0.000000e+00	0.0	9.900000e-01	0.000000e+00	0.0	1.000000e+00	0.000000e+00	0.0	0.000000e+00	1.000000e-02	0.0	1.000000e-02	1.000000e-02	0.0	2.000000e-02	1.000000e-02	0.0	3.000000e-02	1.000000e-02	0.0	4.000000e-02	1.000000e-02	0.0	5.000000e-02	1.000000e-02	0.0	6.000000e-02	1.000000e-02	0.0	7.000000e-02	1.000000e-02	0.0	8.000000e-02	1.000000e-02	0.0	9.000000e-02	1.000000e-02	0.0	1.000000e-01	1.000000e-02	0.0	1.100000e-01	1.000000e-02	0.0	1.200000e-01	1.000000e-02	0.0	1.300000e-01	1.000000e-02	0.0	1.400000e-01	1.000000e-02	0.0	1.500000e-01	1.000000e-02	0.0	1.600000e-01	1.000000e-02	0.0	1.700000e-01	1.000000e-02	0.0	1.800000e-01	1.000000e-02	0.0	1.900000e-01	1.000000e-02	0.0	2.000000e-01	1.000000e-02	0.0	2.100000e-01	1.000000e-02	0.0	2.200000e-01	1.000000e-02	0.0	2.300000e-01	1.000000e-02	0.0	2.400000e-01	1.000000e-02	0.0	2.500000e-01	1.000000e-02	0.0	2.600000e-01	1.000000e-02	0.0	2.700000e-01	1.000000e-02	0.0	2.800000e-01	1.000000e-02	0.0	2.900000e-01	1.000000e-02	0.0	3.000000e-01	1.000000e-02	0.0	3.100000e-01	1.000000e-02	0.0	3.200000e-01	1.000000e-02	0.0	3.300000e-01	1.000000e-02	0.0	3.400000e-01	1.000000e-02	0.0	3.500000e-01	1.000000e-02	0.0	3.600000e-01	1.000000e-02	0.0	3.700000e-01	1.000000e-02	0.0	3.800000e-01	1.000000e-02	0.0	3.900000e-01	1.000000e-02	0.0	4.000000e-01	1.000000e-02	0.0	4.100000e-01	1.000000e-02	0.0	4.200000e-01	1.000000e-02	0.0	4.300000e-01	1.000000e-02	0.0	4.400000e-01	1.000000e-02	0.0	4.500000e-01	1.000000e-02	0.0	4.600000e-01	1.000000e-02	0.0	4.700000e-01	1.000000e-02	0.0	4.800000e-01	1.000000e-02	0.0	4.900000e-01	1.000000e-02	0.0	5.000000e-01	1.000000e-02	0.0	5.100000e-01	1.000000e-02	0.0	5.200000e-01	1.000000e-02	0.0	5.300000e-01	1.000000e-02	0.0	5.400000e-01	1.000000e-02	0.0	5.500000e-01	1.000000e-02	0.0	5.600000e-01	1.000000e-02	0.0	5.700000e-01	1.000000e-02	0.0	5.800000e-01	1.000000e-02	0.0	5.900000e-01	1.000000e-02	0.0	6.000000e-01	1.000000e-02	0.0	6.100000e-01	1.000000e-02	0.0	6.200000e-01	1.000000e-02	0.0	6.300000e-01	1.000000e-02	0.0	6.400000e-01	1.000000e-02	0.0	6.500000e-01	1.000000e-02	0.0	6.600000e-01	1.000000e-02	0.0	6.700000e-01	1.000000e-02	0.0	6.800000e-01	1.000000e-02	0.0	6.900000e-01	1.000000e-02	0.0	7.000000e-01	1.000000e-02	0.0	7.100000e-01	1.000000e-02	0.0	7.200000e-01	1.000000e-02	0.0	7.300000e-01	1.000000e-02	0.0	7.400000e-01	1.000000e-02	0.0	7.500000e-01	1.000000e-02	0.0	7.600000e-01	1.000000e-02	0.0	7.700000e-01	1.000000e-02	0.0	7.800000e-01	1.000000e-02	0.0	7.900000e-01	1.000000e-02	0.0	8.000000e-01	1.000000e-02	0.0	8.100000e-01	1.000000e-02	0.0	8.200000e-01	1.000000e-02	0.0	8.300000e-01	1.000000e-02	0.0	8.400000e-01	1.000000e-02	0.0	8.500000e-01	1.000000e-02	0.0	8.600000e-01	1.000000e-02	0.0	8.700000e-01	1.000000e-02	0.0	8.800000e-01	1.000000e-02	0.0	8.900000e-01	1.000000e-02	0.0	9.000000e-01	1.000000e-02	0.0	9.100000e-01	1.000000e-02	0.0	9.200000e-01	1.000000e-02	0.0	9.300000e-01	1.000000e-02	0.0	9.400000e-01	1.000000e-02	0.0	9.500000e-01	1.000000e-02	0.0	9.600000e-01	1.000000e-02	0.0	9.700000e-01	1.000000e-02	0.0	9.800000e-01	1.000000e-02	0.0	9.900000e-01	1.000000e-02	0.0	1.000000e+00	1.000000e-02	0.0	0.000000e+00	2.000000e-02	0.0	1.000000e-02	2.000000e-02	0.0	2.000000e-02	2.000000e-02	0.0	3.000000e-02	2.000000e-02	0.0	4.000000e-02	2.000000e-02	0.0	5.000000e-02	2.000000e-02	0.0	6.000000e-02	2.000000e-02	0.0	7.000000e-02	2.000000e-02	0.0	8.000000e-02	2.000000e-02	0.0	9.000000e-02	2.000000e-02	0.0	1.000000e-01	2.000000e-02	0.0	1.100000e-01	2.000000e-02	0.0	1.200000e-01	2.000000e-02	0.0	1.300000e-01	2.000000e-02	0.0	1.400000e-01	2.000000e-02	0.0	1.500000e-01	2.000000e-02	0.0	1.600000e-01	2.000000e-02	0.0	1.700000e-01	2.000000e-02	0.0	1.800000e-01	2.000000e-02	0.0	1.900000e-01	2.000000e-02	0.0	2.000000e-01	2.000000e-02	0.0	2.100000e-01	2.000000e-02	0.0	2.200000e-01	2.000000e-02	0.0	2.300000e-01	2.000000e-02	0.0	2.400000e-01	2.000000e-02	0.0	2.500000e-01	2.000000e-02	0.0	2.600000e-01	2.000000e-02	0.0	2.700000e-01	2.000000e-02	0.0	2.800000e-01	2.000000e-02	0.0	2.900000e-01	2.000000e-02	0.0	3.000000e-01	2.000000e-02	0.0	3.100000e-01	2.000000e-02	0.0	3.200000e-01	2.000000e-02	0.0	3.300000e-01	2.000000e-02	0.0	3.400000e-01	2.000000e-02	0.0	3.500000e-01	2.000000e-02	0.0	3.600000e-01	2.000000e-02	0.0	3.700000e-01	2.000000e-02	0.0	3.800000e-01	2.000000e-02	0.0	3.900000e-01	2.000000e-02	0.0	4.000000e-01	2.000000e-02	0.0	4.100000e-01	2.000000e-02	0.0	4.200000e-01	2.000000e-02	0.0	4.300000e-01	2.000000e-02	0.0	4.400000e-01	2.000000e-02	0.0	4.500000e-01	2.000000e-02	0.0	4.600000e-01	2.000000e-02	0.0	4.700000e-01	2.000000e-02	0.0	4.800000e-01	2.000000e-02	0.0	4.900000e-01	2.000000e-02	0.0	5.000000e-01	2.000000e-02	0.0	5.100000e-01	2.000000e-02	0.0	5.200000e-01	2.000000e-02	0.0	5.300000e-01	2.000000e-02	0.0	5.400000e-01	2.000000e-02	0.0	5.500000e-01	2.000000e-02	0.0	5.600000e-01	2.000000e-02	0.0	5.700000e-01	2.000000e-02	0.0	5.800000e-01	2.000000e-02	0.0	5.900000e-01	2.000000e-02	0.0	6.000000e-01	2.000000e-02	0.0	6.100000e-01	2.000000e-02	0.0	6.200000e-01	2.000000e-02	0.0	6.300000e-01	2.000000e-02	0.0	6.400000e-01	2.000000e-02	0.0	6.500000e-01	2.000000e-02	0.0	6.600000e-01	2.000000e-02	0.0	6.700000e-01	2.000000e-02	0.0	6.800000e-01	2.000000e-02	0.0	6.900000e-01	2.000000e-02	0.0	7.000000e-01	2.000000e-02	0.0	7.100000e-01	2.000000e-02	0.0	7.200000e-01	2.000000e-02	0.0	7.300000e-01	2.000000e-02	0.0	7.400000e-01	2.000000e-02	0.0	7.500000e-01	2.000000e-02	0.0	7.600000e-01	2.000000e-02	0.0	7.700000e-01	2.000000e-02	0.0	7.800000e-01	2.000000e-02	0.0	7.900000e-01	2.000000e-02	0.0	8.000000e-01	2.000000e-02	0.0	8.100000e-01	2.000000e-02	0.0	8.200000e-01	2.000000e-02	0.0	8.300000e-01	2.000000e-02	0.0	8.400000e-01	2.000000e-02	0.0	8.500000e-01	2.000000e-02	0.0	8.600000e-01	2.000000e-02	0.0	8.700000e-01	2.000000e-02	0.0	8.800000e-01	2.000000e-02	0.0	8.900000e-01	2.000000e-02	0.0	9.000000e-01	2.000000e-02	0.0	9.100000e-01	2.000000e-02	0.0	9.200000e-01	2.000000e-02	0.0	9.300000e-01	2.000000e-02	0.0	9.400000e-01	2.000000e-02	0.0	9.500000e-01	2.000000e-02	0.0	9.600000e-01	2.000000e-02	0.0	9.700000e-01	2.000000e-02	0.0	9.800000e-01	2.000000e-02	0.0	9.900000e-01	2.000000e-02	0.0	1.000000e+00	2.000000e-02	0.0	0.000000e+00	3.000000e-02	0.0	1.000000e-02	3.000000e-02	0.0	2.000000e-02	3.000000e-02	0.0	3.000000e-02	3.000000e-02	0.0	4.000000e-02	3.000000e-02	0.0	5.000000e-02	3.000000e-02	0.0	6.000000e-02	3.000000e-02	0.0	7.000000e-02	3.000000e-02	0.0	8.000000e-02	3.000000e-02	0.0	9.000000e-02	3.000000e-02	0.0	1.000000e-01	3.000000e-02	0.0	1.100000e-01	3.000000e-02	0.0	1.200000e-01	3.000000e-02	0.0	1.300000e-01	3.000000e-02	0.0	1.400000e-01	3.000000e-02	0.0	1.500000e-01	3.000000e-02	0.0	1.600000e-01	3.000000e-02	0.0	1.700000e-01	3.000000e-02	0.0	1.800000e-01	3.000000e-02	0.0	1.900000e-01	3.000000e-02	0.0	2.000000e-01	3.000000e-02	0.0	2.100000e-01	3.000000e-02	0.0	2.200000e-01	3.000000e-02	0.0	2.300000e-01	3.000000e-02	0.0	2.400000e-01	3.000000e-02	0.0	2.500000e-01	3.000000e-02	0.0	2.600000e-01	3.000000
[...]
POINT_DATA 10201

SCALARS Height double 1
LOOKUP_TABLE default
9.994215e-01	9.994290e-01	9.994413e-01	9.994368e-01	9.994334e-01	9.994281e-01	9.994217e-01	9.994138e-01	9.994092e-01	9.994060e-01	9.994033e-01	9.994008e-01	9.993978e-01	9.993945e-01	9.993913e-01	9.993892e-01	9.993926e-01	9.994049e-01	9.994135e-01	9.994185e-01	9.994210e-01	9.994168e-01	9.994077e-01	9.993942e-01	9.993759e-01	9.993654e-01	9.993605e-01	9.993574e-01	9.993549e-01	9.993521e-01	9.993486e-01	9.993438e-01	9.993376e-01	9.993309e-01	9.993249e-01	9.993199e-01	9.993171e-01	9.993196e-01	9.993357e-01	9.993965e-01	9.996092e-01	1.000261e+00	1.001910e+00	1.005134e+00	1.009670e+00	1.013989e+00	1.016673e+00	1.017628e+00	1.017693e+00	1.017226e+00	1.015920e+00	1.013490e+00	1.010012e+00	1.005997e+00	1.001967e+00	9.982767e-01	9.951581e-01	9.927694e-01	9.911986e-01	9.903840e-01	9.901091e-01	9.900924e-01	9.902329e-01	9.906169e-01	9.913339e-01	9.923500e-01	9.934507e-01	9.944247e-01	9.951826e-01	9.957319e-01	9.961235e-01	9.964056e-01	9.966103e-01	9.967527e-01	9.968373e-01	9.968688e-01	9.968601e-01	9.968302e-01	9.967974e-01	9.967952e-01	9.969172e-01	9.974348e-01	9.988927e-01	1.001934e+00	1.006446e+00	1.010985e+00	1.013925e+00	1.014986e+00	1.014961e+00	1.014363e+00	1.012894e+00	1.010240e+00	1.006385e+00	1.001707e+00	9.966985e-01	9.918655e-01	9.876776e-01	9.845147e-01	9.824793e-01	9.815255e-01	9.810975e-01	9.994243e-01	9.994221e-01	9.994296e-01	9.994243e-01	9.994205e-01	9.994166e-01	9.994126e-01	9.994093e-01	9.994097e-01	9.994099e-01	9.994095e-01	9.994079e-01	9.994050e-01	9.994017e-01	9.993987e-01	9.993964e-01	9.993904e-01	9.993937e-01	9.993930e-01	9.993920e-01	9.993924e-01	9.993895e-01	9.993884e-01	9.993826e-01	9.993744e-01	9.993729e-01	9.993687e-01	9.993653e-01	9.993622e-01	9.993587e-01	9.993542e-01	9.993486e-01	9.993416e-01	9.993335e-01	9.993250e-01	9.993167e-01	9.993100e-01	9.993069e-01	9.993136e-01	9.993544e-01	9.995212e-01	1.000105e+00	1.001760e+00	1.005168e+00	1.009882e+00	1.014157e+00	1.016693e+00	1.017594e+00	1.017698e+00	1.017404e+00	1.016085e+00	1.013525e+00	1.009993e+00	1.005974e+00	1.001938e+00	9.982368e-01	9.951037e-01	9.927154e-01	9.911620e-01	9.903697e-01	9.901008e-01	9.900651e-01	9.901463e-01	9.905263e-01	9.912928e-01	9.923297e-01	9.934272e-01	9.943938e-01	9.951474e-01	9.956985e-01	9.960936e-01	9.963792e-01	9.965866e-01	9.967301e-01	9.968144e-01	9.968455e-01	9.968366e-01	9.968048e-01	9.967671e-01	9.967485e-01	9.968294e-01	9.972784e-01	9.987253e-01	1.001935e+00	1.006653e+00	1.011165e+00	1.013959e+00	1.014947e+00	1.014939e+00	1.014501e+00	1.013057e+00	1.010282e+00	1.006358e+00	1.001668e+00	9.966577e-01	9.918073e-01	9.875876e-01	9.843852e-01	9.823968e-01	9.814955e-01	9.810704e-01	9.994129e-01	9.994118e-01	9.994186e-01	9.994148e-01	9.994118e-01	9.994093e-01	9.994077e-01	9.994054e-01	9.994037e-01	9.994041e-01	9.994045e-01	9.994033e-01	9.993999e-01	9.993955e-01	9.993907e-01	9.993861e-01	9.993804e-01	9.993775e-01	9.993781e-01	9.993810e-01	9.993824e-01	9.993786e-01	9.993723e-01	9.993678e-01	9.993626e-01	9.993587e-01	9.993566e-01	9.993541e-01	9.993518e-01	9.993498e-01	9.993475e-01	9.993438e-01	9.993383e-01	9.993309e-01	9.993221e-01	9.993136e-01	9.993062e-01	9.993010e-01	9.993036e-01	9.993353e-01	9.994836e-01	1.000051e+00	1.001749e+00	1.005270e+00	1.009996e+00	1.014121e+00	1.016530e+00	1.017419e+00	1.017539e+00	1.017329e+00	1.016086e+00	1.013435e+00	1.009878e+00	1.005920e+00	1.001942e+00	9.982650e-01	9.951440e-01	9.927786e-01	9.912363e-01	9.904323e-01	9.901450e-01	9.900989e-01	9.901492e-01	9.905056e-01	9.912934e-01	9.923320e-01	9.934032e-01	9.943498e-01	9.950998e-01	9.956565e-01	9.960586e-01	9.963493e-01	9.965585e-01	9.967019e-01	9.967856e-01	9.968170e-01	9.968096e-01	9.967794e-01	9.967416e-01	9.967179e-01	9.967841e-01	9.972171e-01	9.987031e-01	1.002033e+00	1.006791e+00	1.011157e+00	1.013799e+00	1.014758e+00	1.014767e+00	1.014391e+00	1.013044e+00	1.010194e+00	1.006232e+00	1.001584e+00	9.966436e-01	9.918444e-01	9.876437e-01	9.844446e-01	9.825006e-01	9.816004e-01	9.811566e-01	9.994094e-01	9.994074e-01	9.994136e-01	9.994107e-01	9.994092e-01	9.994079e-01	9.994070e-01	9.994055e-01	9.994046e-01	9.994052e-01	9.994055e-01	9.994041e-01	9.994007e-01	9.993963e-01	9.993918e-01	9.993876e-01	9.993817e-01	9.993826e-01	9.993815e-01	9.993825e-01	9.993837e-01	9.993807e-01	9.993773e-01	9.993719e-01	9.993647e-01	9.993602e-01	9.993566e-01	9.993536e-01	9.993514e-01	9.993497e-01	9.993478e-01	9.993445e-01	9.993392e-01	9.993318e-01	9.993225e-01	9.993131e-01	9.993045e-01	9.992980e-01	9.992981e-01	9.993231e-01	9.994567e-01	1.000010e+00	1.001726e+00	1.005305e+00	1.010052e+00	1.014112e+00	1.016437e+00	1.017293e+00	1.017413e+00	1.017246e+00	1.016131e+00	1.013485e+00	1.009864e+00	1.005924e+00	1.001998e+00	9.983448e-01	9.952334e-01	9.928597e-01	9.913051e-01	9.904886e-01	9.901818e-01	9.901269e-01	9.901599e-01	9.904688e-01	9.912430e-01	9.923024e-01	9.933778e-01	9.943184e-01	9.950682e-01	9.956286e-01	9.960359e-01	9.963312e-01	9.965440e-01	9.966895e-01	9.967741e-01	9.968058e-01	9.967983e-01	9.967677e-01	9.967285e-01	9.967000e-01	9.967535e-01	9.971732e-01	9.986776e-01	1.002068e+00	1.006848e+00	1.011156e+00	1.013705e+00	1.014619e+00	1.014622e+00	1.014280e+00	1.013048e+00	1.010222e+00	1.006193e+00	1.001556e+00	9.966649e-01	9.919002e-01	9.877031e-01	9.845212e-01	9.825998e-01	9.816896e-01	9.812309e-01	9.994084e-01	9.994063e-01	9.994129e-01	9.994105e-01	9.994093e-01	9.994086e-01	9.994078e-01	9.994067e-01	9.994059e-01	9.994060e-01	9.994055e-01	9.994035e-01	9.993994e-01	9.993945e-01	9.993900e-01	9.993861e-01	9.993817e-01	9.993829e-01	9.993812e-01	9.993817e-01	9.993828e-01	9.993805e-01	9.993779e-01	9.993726e-01	9.993655e-01	9.993594e-01	9.993550e-01	9.993516e-01	9.993496e-01	9.993484e-01	9.993472e-01	9.993446e-01	9.993397e-01	9.993324e-01	9.993227e-01	9.993121e-01	9.993023e-01	9.992953e-01	9.992945e-01	9.993165e-01	9.994413e-01	9.999816e-01	1.001701e+00	1.005308e+00	1.010053e+00	1.014062e+00	1.016332e+00	1.017165e+00	1.017283e+00	1.017138e+00	1.016139e+00	1.013592e+00	1.009935e+00	1.005973e+00	1.002083e+00	9.984672e-01	9.953635e-01	9.929775e-01	9.914026e-01	9.905650e-01	9.902433e-01	9.901774e-01	9.901986e-01	9.904619e-01	9.911927e-01	9.922550e-01	9.933420e-01	9.942847e-01	9.950357e-01	9.956007e-01	9.960138e-01	9.963141e-01	9.965306e-01	9.966782e-01	9.967634e-01	9.967949e-01	9.967871e-01	9.967562e-01	9.967163e-01	9.966860e-01	9.967343e-01	9.971463e-01	9.986575e-01	1.002075e+00	1.006852e+00	1.011107e+00	1.013592e+00	1.014471e+00	1.014471e+00	1.014136e+00	1.013004e+00	1.010281e+00	1.006227e+00	1.001567e+00	9.967054e-01	9.919713e-01	9.877868e-01	9.846331e-01	9.827339e-01	9.818165e-01	9.813414e-01	9.994091e-01	9.994078e-01	9.994134e-01	9.994114e-01	9.994100e-01	9.994094e-01	9.994090e-01	9.994084e-01	9.994078e-01	9.994077e-01	9.994069e-01	9.994046e-01	9.994003e-01	9.993952e-01	9.993906e-01	9.993870e-01	9.993831e-01	9.993846e-01	9.993835e-01	9.993838e-01	9.993848e-01	9.993830e-01	9.993810e-01	9.993749e-01	9.993679e-01	9.993624e-01	9.993576e-01	9.993544e-01	9.993526e-01	9.993516e-01	9.993503e-01	9.993476e-01	9.993423e-01	9.993335e-01	9.993221e-01	9.993107e-01	9.993008e-01	9.992936e-01	9.992930e-01	9.993140e-01	9.994340e-01	9.999641e-01	1.001678e+00	1.005285e+00	1.010011e+00	1.013974e+00	1.016210e+00	1.017028e+00	1.017147e+00	1.017022e+00	1.016124e+00	1.013712e+00	1.010082e+00	1.006085e+00	1.002199e+00	9.986205e-01	9.955311e-01	9.931334e-01	9.915317e-01	9.906622e-01	9.903188e-01	9.902460e-01	9.902594e-01	9.904762e-01	9.911449e-01	9.921883e-01	9.932877e-01	9.942411e-01	9.949976e-01	9.955700e-01	9.959915e-01	9.962986e-01	9.965191e-01	9.966681e-01	9.967532e-01	9.967842e-01	9.967760e-01	9.967449e-01	9.967049e-01	9.966750e-01	9.967243e-01	9.971358e-01	9.986454e-01	1.002059e+00	1.006813e+00	1.011009e+00	1.013452e+00	1.014316e+00	1.014317e+00	1.013988e+00	1.012936e+00	1.010341e+00	1.006327e+00	1.001634e+00	9.967663e-01	9.920513e-01	9.878931e-01	9.847873e-01	9.829055e-01	9.819775e-01	9.814887e-01	9.994087e-01	9.994073e-01	9.994129e-01	9.994114e-01	9.994102e-01	9.994093e-01	9.994090e-01	9.994082e-01	9.994088e-01	9.994088e-01	9.994080e-01	9.994058e-01	9.994018e-01	9.993970e-01	9.993923e-01	9.993885e-01	9.993842e-01	9.993849e-01	9.993841e-01	9.993843e-01	9.993849e-01	9.993832e-01	9.993817e-01	9.993749e-01	9.993689e-01	9.993646e-01	9.993603e-01	9.993574e-01	9.993555e-01	9.993542e-01	9.993525e-01	9.993483e-01	9.993410e-01	9.993314e-01	9.993201e-01	9.993087e-01	9.992991e-01	9.992931e-01	9.992930e-01	9.993132e-01	9.994312e-01	9.999563e-01	1.001656e+00	1.005239e+00	1.009925e+00	1.013845e+00	1.016058e+00	1.016875e+00	1.016998e+00	1.016888e+00	1.016082e+00	1.013814e+00	1.010260e+00	1.006249e+00	1.002359e+00	9.988023e-01	9.957289e-01	9.933220e-01	9.916914e-01	9.907852e-01	9.904106e-01	9.903230e-01	9.903295e-01	9.904980e-01	9.910921e-01	9.921002e-01	9.932092e-01	9.941792e-01	9.949466e-01	9.955291e-01	9.959612e-01	9.962762e-01	9.965010e-01	9.966518e-01	9.967372e-01	9.967683e-01	9.967603e-01	9.967297e-01	9.966904e-01	9.966627e-01	9.967180e-01	9.971375e-01	9.986430e-01	1.002021e+00	1.006720e+00	1.010865e+00	1.013278e+00	1.014137e+00	1.014142e+00	1.013818e+00	1.012837e+00	1.010379e+00	1.006448e+00	1.001741e+00	9.968438e-01	9.921398e-01	9.880392e-01	9.850044e-01	9.831338e-01	9.821852e-01	9.816781e-01	9.994041e-01	9.994048e-01	9.994105e-01	9.994090e-01	9.994082e-01	9.994075e-01	9.994075e-01	9.994069e-01	9.994076e-01	9.994084e-01	9.994079e-01	9.994060e-01	9.994026e-01	9.993984e-01	9.993941e-01	9.993899e-01	9.993862e-01	9.993835e-01	9.993844e-01	9.993834e-01	9.993837e-01	9.993818e-01	9.993794e-01	9.993736e-01	9.993690e-01	9.993648e-01	9.993610e-01	9.993579e-01	9.993554e-01	9.993532e-01	9.993499e-01	9.993450e-01	9.993376e-01	9.993281e-01	9.993158e-01	9.993049e-01	9.992977e-01	9.992930e-01	9.992930e-01	9.993126e-01	9.994301e-01	9.999545e-01	1.001640e+00	1.005174e+00	1.009796e+00	1.013671e+00	1.015869e+00	1.016694e+00	1.016826e+00	1.016736e+00	1.016015e+00	1.013898e+00	1.010454e+00	1.006463e+00	1.002559e+00	9.990114e-01	9.959548e-01	9.935388e-01	9.918733e-01	9.909249e-01	9.905146e-01	9.904049e-01	9.904012e-01	9.905209e-01	9.910296e-01	9.919858e-01	9.930978e-01	9.940910e-01	9.948775e-01	9.954743e-01	9.959183e-01	9.962422e-01	9.964721e-01	9.966255e-01	9.967127e-01	9.967454e-01	9.967389e-01	9.967093e-01	9.966716e-01	9.966480e-01	9.967133e-01	9.971480e-01	9.986507e-01	1.001970e+00	1.006579e+00	1.010670e+00	1.013065e+00	1.013925e+00	1.013936e+00	1.013616e+00	1.012705e+00	1.010384e+00	1.006565e+00	1.001870e+00	9.969361e-01	9.922388e-01	9.882175e-01	9.852646e-01	9.834007e-01	9.824230e-01	9.818890e-01	9.993993e-01	9.994029e-01	9.994062e-01	9.994061e-01	9.994057e-01	9.994053e-01	9.994055e-01	9.994062e-01	9.994056e-01	9.994065e-01	9.994061e-01	9.994046e-01	9.994018e-01	9.993984e-01	9.993947e-01	9.993910e-01	9.993868e-01	9.993848e-01	9.993831e-01	9.993827e-01	9.993820e-01	9.993804e-01	9.993764e-01	9.993713e-01	9.993685e-01	9.993643e-01	9.993605e-01	9.993568e-01	9.993534e-01	9.993502e-01	9.993464e-01	9.993411e-01	9.993338e-01	9.993244e-01	9.993118e-01	9.993022e-01	9.992968e-01	9.992941e-01	9.992942e-01	9.993126e-01	9.994310e-01	9.999596e-01	1.001631e+00	1.005097e+00	1.009627e+00	1.013455e+00	1.015648e+00	1.016485e+00	1.016631e+00	1.016555e+00	1.015919e+00	1.013966e+00	1.010654e+00	1.006704e+00	1.002795e+00	9.992526e-01	9.962111e-01	9.937870e-01	9.920799e-01	9.910780e-01	9.906247e-01	9.904897e-01	9.904731e-01	9.905483e-01	9.909644e-01	9.918480e-01	9.929537e-01	9.939754e-01	9.947896e-01	9.954052e-01	9.958627e-01	9.961966e-01	9.964335e-01	9.965909e-01	9.966812e-01	9.967167e-01	9.967125e-01	9.966851e-01	9.966503e-01	9.966324e-01	9.967108e-01	9.971658e-01	9.986670e-01	1.001911e+00	1.006402e+00	1.010424e+00	1.012812e+00	1.013682e+00	1.013698e+00	1.013380e+00	1.012530e+00	1.010352e+00	1.006662e+00	1.002000e+00	9.970426e-01	9.923592e-01	9.884254e-01	9.855574e-01	9.836954e-01	9.826844e-01	9.821210e-01	9.993956e-01	9.994001e-01	9.994024e-01	9.994037e-01	9.994038e-01	9.994039e-01	9.994044e-01	9.994055e-01	9.994052e-01	9.994038e-01	9.994034e-01	9.994018e-01	9.993997e-01	9.993969e-01	9.993937e-01	9.993903e-01	9.993866e-01	9.993850e-01	9.993832e-01	9.993813e-01	9.993803e-01	9.993771e-01	9.993751e-01	9.993719e-01	9.993671e-01	9.993635e-01	9.993594e-01	9.993553e-01	9.993514e-01	9.993475e-01	9.993429e-01	9.993372e-01	9.993305e-01	9.993211e-01	9.993095e-01	9.993007e-01	9.992963e-01	9.992951e-01	9.992957e-01	9.993135e-01	9.994344e-01	9.999726e-01	1.001632e+00	1.005011e+00	1.009424e+00	1.013198e+00	1.015398e+00	1.016255e+00	1.016416e+00	1.016352e+00	1.015801e+00	1.014017e+00	1.010860e+00	1.006975e+00	1.003073e+00	9.995307e-01	9.964987e-01	9.940683e-01	9.923190e-01	9.912536e-01	9.907449e-01	9.905789e-01	9.905524e-01	9.905943e-01	9.909153e-01	9.917041e-01	9.927853e-01	9.938328e-01	9.946809e-01	9.953218e-01	9.957967e-01	9.961435e-01	9.963889e-01	9.965520e-01	9.966457e-01	9.966841e-01	9.966831e-01	9.966592e-01	9.966289e-01	9.966185e-01	9.967123e-01	9.971909e-01	9.986904e-01	1.001847e+00	1.006196e+00	1.010135e+00	1.012519e+00	1.013410e+00	1.013437e+00	1.013118e+00	1.012322e+00	1.010285e+00	1.006730e+00	1.002121e+00	9.971645e-01	9.925159e-01	9.886764e-01	9.858900e-01	9.840232e-01	9.829799e-01	9.823871e-01	9.993933e-01	9.993969e-01	9.993991e-01	9.994011e-01	9.994019e-01	9.994028e-01	9.994040e-01	9.994050e-01	9.994049e-01	9.994033e-01	9.994010e-01	9.993999e-01	9.993976e-01	9.993954e-01	9.993928e-01	9.993898e-01	9.993865e-01	9.993847e-01	9.993832e-01	9.993821e-01	9.993800e-01	9.993776e-01	9.993745e-01	9.993703e-01	9.993665e-01	9.993628e-01	9.993586e-01	9.993541e-01	9.993498e-01	9.993457e-01	9.993410e-01	9.993352e-01	9.993289e-01	9.993200e-01	9.993088e-01	9.993003e-01	9.992961e-01	9.992952e-01	9.992963e-01	9.993146e-01	9.994413e-01	9.999946e-01	1.001641e+00	1.004917e+00	1.009192e+00	1.012903e+00	1.015118e+00	1.016007e+00	1.016188e+00	1.016137e+00	1.015665e+00	1.014054e+00	1.011070e+00	1.007277e+00	1.003396e+00	9.998521e-01	9.968202e-01	9.943806e-01	9.925923e-01	9.914613e-01	9.908869e-01	9.906786e-01	9.906370e-01	9.906573e-01	9.908916e-01	9.915706e-01	9.926054e-01	9.936695e-01	9.945542e-01	9.952260e-01	9.957229e-01	9.960857e-01	9.963426e-01	9.965117e-01	9.966086e-01	9.966496e-01	9.966521e-01	9.966328e-01	9.966084e-01	9.966069e-01	9.967184e-01	9.972229e-01	9.987192e-01	1.001778e+00	1.005968e+00	1.009810e+00	1.012192e+00	1.013113e+00	1.013155e+00	1.012835e+00	1.012087e+00	1.010185e+00	1.006773e+00	1.002240e+00	9.973137e-01	9.927262e-01	9.889880e-01	9.862721e-01	9.843913e-01	9.833183e-01	9.826969e-01	9.993923e-01	9.993944e-01	9.993961e-01	9.993985e-01	9.993997e-01	9.994016e-01	9.994038e-01	9.994052e-01	9.994050e-01	9.994032e-01	9.994011e-01	9.993991e-01	9.993977e-01	9.993953e-01	9.993926e-01	9.993898e-01	9.993865e-01	9.993841e-01	9.993818e-01	9.993794e-01	9.993770e-01	9.993746e-01	9.993723e-01	9.993689e-01	9.993655e-01	9.993623e-01	9.993584e-01	9.993540e-01	9.993494e-01	9.993449e-01	9.993404e-01	9.993352e-01	9.993290e-01	9.993198e-01	9.993089e-01	9.993001e-01	9.992954e-01	9.992941e-01	9.992952e-01	9.993158e-01	9.994535e-01	1.000027e+00	1.001655e+00	1.004820e+00	1.008941e+00	1.012575e+00	1.014804e+00	1.015736e+00	1.015943e+00	1.015908e+00	1.015515e+00	1.014077e+00	1.011283e+00	1.007608e+00	1.003766e+00	1.000223e+00	9.971824e-01	9.947253e-01	9.928969e-01	9.917014e-01	9.910573e-01	9.907974e-01	9.907336e-01	9.907334e-01	9.908920e-01	9.914535e-01	9.924215e-01	9.934927e-01	9.944147e-01	9.951223e-01	9.956454e-01	9.960265e-01	9.962955e-01	9.964714e-01	9.965716e-01	9.966153e-01	9.966211e-01	9.966065e-01	9.965882e-01	9.965966e-01	9.967283e-01	9.972610e-01	9.987523e-01	1.001705e+00	1.005722e+00	1.009455e+00	1.011833e+00	1.012791e+00	1.012853e+00	1.012532e+00	1.011829e+00	1.010059e+00	1.006797e+00	1.002363e+00	9.975024e-01	9.930035e-01	9.893713e-01	9.867088e-01	9.848048e-01	9.837021e-01	9.830480e-01	9.993924e-01	9.993926e-01	9.993942e-01	9.993963e-01	9.993974e-01	9.993999e-01	9.994029e-01	9.994052e-01	9.994054e-01	9.994034e-01	9.994012e-01	9.993994e-01	9.993975e-01	9.993964e-01	9.993938e-01	9.993906e-01	9.993872e-01	9.993842e-01	9.993810e-01	9.993777e-01	9.993748e-01	9.993727e-01	9.993710e-01	9.993684e-01	9.993658e-01	9.993631e-01	9.993594e-01	9.993553e-01	9.993513e-01	9.993467e-01	9.993414e-01	9.993351e-01	9.993287e-01	9.993191e-01	9.993083e-01	9.992991e-01	9.992937e-01	9.992918e-01	9.992930e-01	9.993182e-01	9.994728e-01	1.000066e+00	1.001673e+00	1.004720e+00	1.008678e+00	1.012220e+00	1.014457e+00	1.015436e+00	1.015677e+00	1.015658e+00	1.015342e+00	1.014082e+00	1.011492e+00	1.007958e+00	1.004176e+00	1.000644e+00	9.975920e-01	9.951099e-01	9.932352e-01	9.919710e-01	9.912529e-01	9.909369e-01	9.908435e-01	9.908287e-01	9.909184e-01	9.913535e-01	9.922335e-01	9.933010e-01	9.942625e-01	9.950120e-01	9.955659e-01	9.959670e-01	9.962482e-01	9.964308e-01	9.965347e-01	9.965810e-01	9.965903e-01	9.965796e-01	9.965663e-01	9.965858e-01	9.967403e-01	9.973033e-01	9.987879e-01	1.001630e+00	1.005465e+00	1.009078e+00	1.011445e+00	1.012440e+00	1.012528e+00	1.012207e+00	1.011544e+00	1.009903e+00	1.006803e+00	1.002494e+00	9.977322e-01	9.933508e-01	9.898271e-01	9.871997e-01	9.852662e-01	9.841321e-01	9.834413e-01	9.993936e-01	9.993923e-01	9.993939e-01	9.993953e-01	9.993958e-01	9.993981e-01	9.994014e-01	9.994045e-01	9.994053e-01	9.994037e-01	9.994012e-01	9.993996e-01	9.993979e-01	9.993954e-01	9.993942e-01	9.993915e-01	9.993876e-01	9.993841e-01	9.993800e-01	9.993758e-01	9.993724e-01	9.993707e-01	9.993699e-01	9.993684e-01	9.993664e-01	9.993642e-01	9.993614e-01	9.993567e-01	9.993514e-01	9.993457e-01	9.993402e-01	9.993349e-01	9.993271e-01	9.993174e-01	9.993062e-01	9.992966e-01	9.992909e-01	9.992888e-01	9.992902e-01	9.993232e-01	9.994993e-01	1.000113e+00	1.001695e+00	1.004621e+00	1.008407e+00	1.011847e+00	1.014084e+00	1.015108e+00	1.015385e+00	1.015384e+00	1.015141e+00	1.014059e+00	1.011689e+00	1.008315e+00	1.004612e+00	1.001104e+00	9.980477e-01	9.955395e-01	9.936135e-01	9.922737e-01	9.914730e-01	9.910914e-01	9.909628e-01	9.909355e-01	9.909704e-01	9.912764e-01	9.920406e-01	9.930867e-01	9.940895e-01	9.948887e-01	9.954794e-01	9.959033e-01	9.961979e-01	9.963883e-01	9.964968e-01	9.965458e-01	9.965569e-01	9.965485e-01	9.965406e-01	9.965721e-01	9.967517e-01	9.973470e-01	9.988239e-01	1.001551e+00	1.005199e+00	1.008682e+00	1.011029e+00	1.012059e+00	1.012176e+00	1.011855e+00	1.011222e+00	1.009703e+00	1.006773e+00	1.002617e+00	9.979925e-01	9.937603e-01	9.903469e-01	9.877408e-01	9.857757e-01	9.846135e-01	9.838856e-01	9.993953e-01	9.993933e-01	9.993952e-01	9.993955e-01	9.993949e-01	9.993964e-01	9.993994e-01	9.994028e-01	9.994043e-01	9.994030e-01	9.994006e-01	9.993983e-01	9.993969e-01	9.993950e-01	9.993923e-01	9.993910e-01	9.993876e-01	9.993835e-01	9.993789e-01	9.993739e-01	9.993699e-01	9.993687e-01	9.993688e-01	9.993682e-01	9.993670e-01	9.993648e-01	9.993602e-01	9.993547e-01	9.993489e-01	9.993444e-01	9.993392e-01	9.993327e-01	9.993245e-01	9.993143e-01	9.993027e-01	9.992929e-01	9.992872e-01	9.992849e-01	9.992874e-01	9.993310e-01	9.995288e-01	1.000163e+00	1.001721e+00	1.004523e+00	1.008130e+00	1.011459e+00	1.013689e+00	1.014756e+00	1.015071e+00	1.015086e+00	1.014906e+00	1.013998e+00	1.011861e+00	1.008667e+00	1.005059e+00	1.001589e+00	9.985383e-01	9.960091e-01	9.940329e-01	9.926147e-01	9.917229e-01	9.912632e-01	9.910865e-01	9.910430e-01	9.910437e-01	9.912296e-01	9.918483e-01	9.928449e-01	9.938838e-01	9.947404e-01	9.953762e-01	9.958287e-01	9.961398e-01	9.963400e-01	9.964543e-01	9.965064e-01	9.965190e-01	9.965125e-01	9.965093e-01	9.965533e-01	9.967597e-01	9.973888e-01	9.988585e-01	1.001471e+00	1.004926e+00	1.008268e+00	1.010586e+00	1.011648e+00	1.011792e+00	1.011469e+00	1.010853e+00	1.009441e+00	1.006690e+00	1.002710e+00	9.982717e-01	9.942202e-01	9.909167e-01	9.883227e-01	9.863310e-01	9.851523e-01	9.843936e-01	9.993966e-01	9.993947e-01	9.993966e-01	9.993961e-01	9.993946e-01	9.993949e-01	9.993970e-01	9.994001e-01	9.994019e-01	9.994009e-01	9.993986e-01	9.993958e-01	9.993940e-01	9.993926e-01	9.993909e-01	9.993880e-01	9.993864e-01	9.993825e-01	9.993774