# vtk DataFile Version 3.0
vtk output
ASCII
DATASET STRUCTURED_GRID
DIMENSIONS 101 101 1
POINTS 10201 double
0.000000e+00	0.000000e+00	0.0	1.000000e-02	0.000000e+00	0.0	2.000000e-02	0.000000e+00	0.0	3.000000e-02	0.000000e+00	0.0	4.000000e-02	0.000000e+00	0.0	5.000000e-02	0.000000e+00	0.0	6.000000e-02	0.000000e+00	0.0	7.000000e-02	0.000000e+00	0.0	8.000000e-02	0.000000e+00	0.0	9.000000e-02	0.000000e+00	0.0	1.000000e-01	0.000000e+00	0.0	1.100000e-01	0.000000e+00	0.0	1.200000e-01	0.000000e+00	0.0	1.300000e-01	0.000000e+00	0.0	1.400000e-01	0.000000e+00	0.0	1.500000e-01	0.000000e+00	0.0	1.600000e-01	0.000000e+00	0.0	1.700000e-01	0.000000e+00	0.0	1.800000e-01	0.000000e+00	0.0	1.900000e-01	0.000000e+00	0.0	2.000000e-01	0.000000e+00	0.0	2.100000e-01	0.000000e+00	0.0	2.200000e-01	0.000000e+00	0.0	2.300000e-01	0.000000e+00	0.0	2.400000e-01	0.000000e+00	0.0	2.500000e-01	0.000000e+00	0.0	2.600000e-01	0.000000e+00	0.0	2.700000e-01	0.000000e+00	0.0	2.800000e-01	0.000000e+00	0.0	2.900000e-01	0.000000e+00	0.0	3.000000e-01	0.000000e+00	0.0	3.100000e-01	0.000000e+00	0.0	3.200000e-01	0.000000e+00	0.0	3.300000e-01	0.000000e+00	0.0	3.400000e-01	0.000000e+00	0.0	3.500000e-01	0.000000e+00	0.0	3.600000e-01	0.000000e+00	0.0	3.700000e-01	0.000000e+00	0.0	3.800000e-01	0.000000e+00	0.0	3.900000e-01	0.000000e+00	0.0	4.000000e-01	0.000000e+00	0.0	4.100000e-01	0.000000e+00	0.0	4.200000e-01	0.000000e+00	0.0	4.300000e-01	0.000000e+00	0.0	4.400000e-01	0.000000e+00	0.0	4.500000e-01	0.000000e+00	0.0	4.600000e-01	0.000000e+00	0.0	4.700000e-01	0.000000e+00	0.0	4.800000e-01	0.000000e+00	0.0	4.900000e-01	0.000000e+00	0.0	5.000000e-01	0.000000e+00	0.0	5.100000e-01	0.000000e+00	0.0	5.200000e-01	0.000000e+00	0.0	5.300000e-01	0.000000e+00	0.0	5.400000e-01	0.000000e+00	0.0	5.500000e-01	0.000000e+00	0.0	5.600000e-01	0.000000e+00	0.0	5.700000e-01	0.000000e+00	0.0	5.800000e-01	0.000000e+00	0.0	5.900000e-01	0.000000e+00	0.0	6.000000e-01	0.000000e+00	0.0	6.100000e-01	0.000000e+00	0.0	6.200000e-01	0.000000e+00	0.0	6.300000e-01	0.000000e+00	0.0	6.400000e-01	0.000000e+00	0.0	6.500000e-01	0.000000e+00	0.0	6.600000e-01	0.000000e+00	0.0	6.700000e-01	0.000000e+00	0.0	6.800000e-01	0.000000e+00	0.0	6.900000e-01	0.000000e+00	0.0	7.000000e-01	0.000000e+00	0.0	7.100000e-01	0.000000e+00	0.0	7.200000e-01	0.000000e+00	0.0	7.300000e-01	0.000000e+00	0.0	7.400000e-01	0.000000e+00	0.0	7.500000e-01	0.000000e+00	0.0	7.600000e-01	0.000000e+00	0.0	7.700000e-01	0.000000e+00	0.0	7.800000e-01	0.000000e+00	0.0	7.900000e-01	0.000000e+00	0.0	8.000000e-01	0.000000e+00	0.0	8.100000e-01	0.000000e+00	0.0	8.200000e-01	0.000000e+00	0.0	8.300000e-01	0.000000e+00	0.0	8.400000e-01	0.000000e+00	0.0	8.500000e-01	0.000000e+00	0.0	8.600000e-01	0.000000e+00	0.0	8.700000e-01	0.000000e+00	0.0	8.800000e-01	0.000000e+00	0.0	8.900000e-01	0.000000e+00	0.0	9.000000e-01	0.000000e+00	0.0	9.100000e-01	0.000000e+00	0.0	9.200000e-01	0.000000e+00	0.0	9.300000e-01	0.000000e+00	0.0	9.400000e-01	0.000000e+00	0.0	9.500000e-01	0.000000e+00	0.0	9.600000e-01	0.000000e+00	0.0	9.700000e-01	0.000000e+00	0.0	9.800000e-01	0.000000e+00	0.0	9.900000e-01	0.000000e+00	0.0	1.000000e+00	0.000000e+00	0.0	0.000000e+00	1.000000e-02	0.0	1.000000e-02	1.000000e-02	0.0	2.000000e-02	1.000000e-02	0.0	3.000000e-02	1.000000e-02	0.0	4.000000e-02	1.000000e-02	0.0	5.000000e-02	1.000000e-02	0.0	6.000000e-02	1.000000e-02	0.0	7.000000e-02	1.000000e-02	0.0	8.000000e-02	1.000000e-02	0.0	9.000000e-02	1.000000e-02	0.0	1.000000e-01	1.000000e-02	0.0	1.100000e-01	1.000000e-02	0.0	1.200000e-01	1.000000e-02	0.0	1.300000e-01	1.000000e-02	0.0	1.400000e-01	1.000000e-02	0.0	1.500000e-01	1.000000e-02	0.0	1.600000e-01	1.000000e-02	0.0	1.700000e-01	1.000000e-02	0.0	1.800000e-01	1.000000e-02	0.0	1.900000e-01	1.000000e-02	0.0	2.000000e-01	1.000000e-02	0.0	2.100000e-01	1.000000e-02	0.0	2.200000e-01	1.000000e-02	0.0	2.300000e-01	1.000000e-02	0.0	2.400000e-01	1.000000e-02	0.0	2.500000e-01	1.000000e-02	0.0	2.600000e-01	1.000000e-02	0.0	2.700000e-01	1.000000e-02	0.0	2.800000e-01	1.000000e-02	0.0	2.900000e-01	1.000000e-02	0.0	3.000000e-01	1.000000e-02	0.0	3.100000e-01	1.000000e-02	0.0	3.200000e-01	1.000000e-02	0.0	3.300000e-01	1.000000e-02	0.0	3.400000e-01	1.000000e-02	0.0	3.500000e-01	1.000000e-02	0.0	3.600000e-01	1.000000e-02	0.0	3.700000e-01	1.000000e-02	0.0	3.800000e-01	1.000000e-02	0.0	3.900000e-01	1.000000e-02	0.0	4.000000e-01	1.000000e-02	0.0	4.100000e-01	1.000000e-02	0.0	4.200000e-01	1.000000e-02	0.0	4.300000e-01	1.000000e-02	0.0	4.400000e-01	1.000000e-02	0.0	4.500000e-01	1.000000e-02	0.0	4.600000e-01	1.000000e-02	0.0	4.700000e-01	1.000000e-02	0.0	4.800000e-01	1.000000e-02	0.0	4.900000e-01	1.000000e-02	0.0	5.000000e-01	1.000000e-02	0.0	5.100000e-01	1.000000e-02	0.0	5.200000e-01	1.000000e-02	0.0	5.300000e-01	1.000000e-02	0.0	5.400000e-01	1.000000e-02	0.0	5.500000e-01	1.000000e-02	0.0	5.600000e-01	1.000000e-02	0.0	5.700000e-01	1.000000e-02	0.0	5.800000e-01	1.000000e-02	0.0	5.900000e-01	1.000000e-02	0.0	6.000000e-01	1.000000e-02	0.0	6.100000e-01	1.000000e-02	0.0	6.200000e-01	1.000000e-02	0.0	6.300000e-01	1.000000e-02	0.0	6.400000e-01	1.000000e-02	0.0	6.500000e-01	1.000000e-02	0.0	6.600000e-01	1.000000e-02	0.0	6.700000e-01	1.000000e-02	0.0	6.800000e-01	1.000000e-02	0.0	6.900000e-01	1.000000e-02	0.0	7.000000e-01	1.000000e-02	0.0	7.100000e-01	1.000000e-02	0.0	7.200000e-01	1.000000e-02	0.0	7.300000e-01	1.000000e-02	0.0	7.400000e-01	1.000000e-02	0.0	7.500000e-01	1.000000e-02	0.0	7.600000e-01	1.000000e-02	0.0	7.700000e-01	1.000000e-02	0.0	7.800000e-01	1.000000e-02	0.0	7.900000e-01	1.000000e-02	0.0	8.000000e-01	1.000000e-02	0.0	8.100000e-01	1.000000e-02	0.0	8.200000e-01	1.000000e-02	0.0	8.300000e-01	1.000000e-02	0.0	8.400000e-01	1.000000e-02	0.0	8.500000e-01	1.000000e-02	0.0	8.600000e-01	1.000000e-02	0.0	8.700000e-01	1.000000e-02	0.0	8.800000e-01	1.000000e-02	0.0	8.900000e-01	1.000000e-02	0.0	9.000000e-01	1.000000e-02	0.0	9.100000e-01	1.000000e-02	0.0	9.200000e-01	1.000000e-02	0.0	9.300000e-01	1.000000e-02	0.0	9.400000e-01	1.000000e-02	0.0	9.500000e-01	1.000000e-02	0.0	9.600000e-01	1.000000e-02	0.0	9.700000e-01	1.000000e-02	0.0	9.800000e-01	1.000000e-02	0.0	9.900000e-01	1.000000e-02	0.0	1.000000e+00	1.000000e-02	0.0	0.000000e+00	2.000000e-02	0.0	1.000000e-02	2.000000e-02	0.0	2.000000e-02	2.000000e-02	0.0	3.000000e-02	2.000000e-02	0.0	4.000000e-02	2.000000e-02	0.0	5.000000e-02	2.000000e-02	0.0	6.000000e-02	2.000000e-02	0.0	7.000000e-02	2.000000e-02	0.0	8.000000e-02	2.000000e-02	0.0	9.000000e-02	2.000000e-02	0.0	1.000000e-01	2.000000e-02	0.0	1.100000e-01	2.000000e-02	0.0	1.200000e-01	2.000000e-02	0.0	1.300000e-01	2.000000e-02	0.0	1.400000e-01	2.000000e-02	0.0	1.500000e-01	2.000000e-02	0.0	1.600000e-01	2.000000e-02	0.0	1.700000e-01	2.000000e-02	0.0	1.800000e-01	2.000000e-02	0.0	1.900000e-01	2.000000e-02	0.0	2.000000e-01	2.000000e-02	0.0	2.100000e-01	2.000000e-02	0.0	2.200000e-01	2.000000e-02	0.0	2.300000e-01	2.000000e-02	0.0	2.400000e-01	2.000000e-02	0.0	2.500000e-01	2.000000e-02	0.0	2.600000e-01	2.000000e-02	0.0	2.700000e-01	2.000000e-02	0.0	2.800000e-01	2.000000e-02	0.0	2.900000e-01	2.000000e-02	0.0	3.000000e-01	2.000000e-02	0.0	3.100000e-01	2.000000e-02	0.0	3.200000e-01	2.000000e-02	0.0	3.300000e-01	2.000000e-02	0.0	3.400000e-01	2.000000e-02	0.0	3.500000e-01	2.000000e-02	0.0	3.600000e-01	2.000000e-02	0.0	3.700000e-01	2.000000e-02	0.0	3.800000e-01	2.000000e-02	0.0	3.900000e-01	2.000000e-02	0.0	4.000000e-01	2.000000e-02	0.0	4.100000e-01	2.000000e-02	0.0	4.200000e-01	2.000000e-02	0.0	4.300000e-01	2.000000e-02	0.0	4.400000e-01	2.000000e-02	0.0	4.500000e-01	2.000000e-02	0.0	4.600000e-01	2.000000e-02	0.0	4.700000e-01	2.000000e-02	0.0	4.800000e-01	2.000000e-02	0.0	4.900000e-01	2.000000e-02	0.0	5.000000e-01	2.000000e-02	0.0	5.100000e-01	2.000000e-02	0.0	5.200000e-01	2.000000e-02	0.0	5.300000e-01	2.000000e-02	0.0	5.400000e-01	2.000000e-02	0.0	5.500000e-01	2.000000e-02	0.0	5.600000e-01	2.000000e-02	0.0	5.700000e-01	2.000000e-02	0.0	5.800000e-01	2.000000e-02	0.0	5.900000e-01	2.000000e-02	0.0	6.000000e-01	2.000000e-02	0.0	6.100000e-01	2.000000e-02	0.0	6.200000e-01	2.000000e-02	0.0	6.300000e-01	2.000000e-02	0.0	6.400000e-01	2.000000e-02	0.0	6.500000e-01	2.000000e-02	0.0	6.600000e-01	2.000000e-02	0.0	6.700000e-01	2.000000e-02	0.0	6.800000e-01	2.000000e-02	0.0	6.900000e-01	2.000000e-02	0.0	7.000000e-01	2.000000e-02	0.0	7.100000e-01	2.000000e-02	0.0	7.200000e-01	2.000000e-02	0.0	7.300000e-01	2.000000e-02	0.0	7.400000e-01	2.000000e-02	0.0	7.500000e-01	2.000000e-02	0.0	7.600000e-01	2.000000e-02	0.0	7.700000e-01	2.000000e-02	0.0	7.800000e-01	2.000000e-02	0.0	7.900000e-01	2.000000e-02	0.0	8.000000e-01	2.000000e-02	0.0	8.100000e-01	2.000000e-02	0.0	8.200000e-01	2.000000e-02	0.0	8.300000e-01	2.000000e-02	0.0	8.400000e-01	2.000000e-02	0.0	8.500000e-01	2.000000e-02	0.0	8.600000e-01	2.000000e-02	0.0	8.700000e-01	2.000000e-02	0.0	8.800000e-01	2.000000e-02	0.0	8.900000e-01	2.000000e-02	0.0	9.000000e-01	2.000000e-02	0.0	9.100000e-01	2.000000e-02	0.0	9.200000e-01	2.000000e-02	0.0	9.300000e-01	2.000000e-02	0.0	9.400000e-01	2.000000e-02	0.0	9.500000e-01	2.000000e-02	0.0	9.600000e-01	2.000000e-02	0.0	9.700000e-01	2.000000e-02	0.0	9.800000e-01	2.000000e-02	0.0	9.900000e-01	2.000000e-02	0.0	1.000000e+00	2.000000e-02	0.0	0.000000e+00	3.000000e-02	0.0	1.000000e-02	3.000000e-02	0.0	2.000000e-02	3.000000e-02	0.0	3.000000e-02	3.000000e-02	0.0	4.000000e-02	3.000000e-02	0.0	5.000000e-02	3.000000e-02	0.0	6.000000e-02	3.000000e-02	0.0	7.000000e-02	3.000000e-02	0.0	8.000000e-02	3.000000e-02	0.0	9.000000e-02	3.000000e-02	0.0	1.000000e-01	3.000000e-02	0.0	1.100000e-01	3.000000e-02	0.0	1.200000e-01	3.000000e-02	0.0	1.300000e-01	3.000000e-02	0.0	1.400000e-01	3.000000e-02	0.0	1.500000e-01	3.000000e-02	0.0	1.600000e-01	3.000000e-02	0.0	1.700000e-01	3.000000e-02	0.0	1.800000e-01	3.000000e-02	0.0	1.900000e-01	3.000000e-02	0.0	2.000000e-01	3.000000e-02	0.0	2.100000e-01	3.000000e-02	0.0	2.200000e-01	3.000000e-02	0.0	2.300000e-01	3.000000e-02	0.0	2.400000e-01	3.000000e-02	0.0	2.500000e-01	3.000000e-02	0.0	2.600000e-01	3.000000
[...]
POINT_DATA 10201

SCALARS Height double 1
LOOKUP_TABLE default
9.994240e-01	9.994300e-01	9.994366e-01	9.994335e-01	9.994320e-01	9.994312e-01	9.994307e-01	9.994287e-01	9.994260e-01	9.994257e-01	9.994259e-01	9.994266e-01	9.994275e-01	9.994277e-01	9.994261e-01	9.994220e-01	9.994196e-01	9.994165e-01	9.994159e-01	9.994175e-01	9.994176e-01	9.994126e-01	9.994067e-01	9.994013e-01	9.993972e-01	9.993938e-01	9.993926e-01	9.993901e-01	9.993869e-01	9.993835e-01	9.993802e-01	9.993768e-01	9.993734e-01	9.993705e-01	9.993712e-01	9.993867e-01	9.994540e-01	9.996864e-01	1.000373e+00	1.002066e+00	1.005299e+00	1.009714e+00	1.013850e+00	1.016389e+00	1.017289e+00	1.017350e+00	1.016880e+00	1.015600e+00	1.013231e+00	1.009866e+00	1.005964e+00	1.002047e+00	9.984571e-01	9.954119e-01	9.930678e-01	9.915131e-01	9.906900e-01	9.903914e-01	9.903539e-01	9.904694e-01	9.908285e-01	9.915083e-01	9.924861e-01	9.935697e-01	9.945441e-01	9.953135e-01	9.958810e-01	9.962911e-01	9.965897e-01	9.968091e-01	9.969661e-01	9.970674e-01	9.971188e-01	9.971328e-01	9.971265e-01	9.971207e-01	9.971508e-01	9.973206e-01	9.979009e-01	9.994367e-01	1.002534e+00	1.006996e+00	1.011409e+00	1.014261e+00	1.015334e+00	1.015406e+00	1.014956e+00	1.013731e+00	1.011473e+00	1.008195e+00	1.004288e+00	1.000224e+00	9.963498e-01	9.928957e-01	9.900012e-01	9.877105e-01	9.859377e-01	9.845389e-01	9.833825e-01	9.825622e-01	9.822646e-01	9.994371e-01	9.994547e-01	9.994556e-01	9.994529e-01	9.994522e-01	9.994504e-01	9.994479e-01	9.994431e-01	9.994390e-01	9.994351e-01	9.994332e-01	9.994333e-01	9.994341e-01	9.994343e-01	9.994326e-01	9.994297e-01	9.994253e-01	9.994242e-01	9.994231e-01	9.994214e-01	9.994199e-01	9.994158e-01	9.994138e-01	9.994077e-01	9.994022e-01	9.994027e-01	9.994002e-01	9.993973e-01	9.993935e-01	9.993895e-01	9.993855e-01	9.993813e-01	9.993766e-01	9.993721e-01	9.993697e-01	9.993766e-01	9.994204e-01	9.995997e-01	1.000219e+00	1.001926e+00	1.005346e+00	1.009970e+00	1.014083e+00	1.016485e+00	1.017315e+00	1.017394e+00	1.017099e+00	1.015817e+00	1.013319e+00	1.009869e+00	1.005950e+00	1.002022e+00	9.984168e-01	9.953591e-01	9.930187e-01	9.914817e-01	9.906814e-01	9.904014e-01	9.903610e-01	9.904245e-01	9.907671e-01	9.914960e-01	9.925107e-01	9.936002e-01	9.945702e-01	9.953345e-01	9.958984e-01	9.963065e-01	9.966050e-01	9.968249e-01	9.969813e-01	9.970801e-01	9.971281e-01	9.971388e-01	9.971287e-01	9.971126e-01	9.971193e-01	9.972386e-01	9.977456e-01	9.992757e-01	1.002545e+00	1.007241e+00	1.011658e+00	1.014374e+00	1.015362e+00	1.015431e+00	1.015142e+00	1.013958e+00	1.011573e+00	1.008206e+00	1.004271e+00	1.000195e+00	9.963075e-01	9.928404e-01	9.899455e-01	9.876748e-01	9.859349e-01	9.845593e-01	9.833943e-01	9.825075e-01	9.821210e-01	9.994376e-01	9.994535e-01	9.994524e-01	9.994498e-01	9.994490e-01	9.994477e-01	9.994454e-01	9.994412e-01	9.994372e-01	9.994339e-01	9.994313e-01	9.994296e-01	9.994282e-01	9.994268e-01	9.994256e-01	9.994252e-01	9.994219e-01	9.994237e-01	9.994192e-01	9.994170e-01	9.994155e-01	9.994109e-01	9.994074e-01	9.994059e-01	9.993991e-01	9.993951e-01	9.993916e-01	9.993881e-01	9.993852e-01	9.993825e-01	9.993794e-01	9.993759e-01	9.993720e-01	9.993682e-01	9.993658e-01	9.993708e-01	9.994062e-01	9.995651e-01	1.000165e+00	1.001917e+00	1.005444e+00	1.010070e+00	1.014046e+00	1.016341e+00	1.017170e+00	1.017274e+00	1.017065e+00	1.015846e+00	1.013265e+00	1.009794e+00	1.005927e+00	1.002043e+00	9.984567e-01	9.954100e-01	9.930861e-01	9.915556e-01	9.907468e-01	9.904468e-01	9.903946e-01	9.904369e-01	9.907614e-01	9.915074e-01	9.925239e-01	9.935919e-01	9.945459e-01	9.953071e-01	9.958745e-01	9.962893e-01	9.965942e-01	9.968182e-01	9.969762e-01	9.970751e-01	9.971232e-01	9.971348e-01	9.971256e-01	9.971097e-01	9.971098e-01	9.972079e-01	9.976940e-01	9.992600e-01	1.002643e+00	1.007365e+00	1.011641e+00	1.014227e+00	1.015200e+00	1.015296e+00	1.015076e+00	1.013985e+00	1.011533e+00	1.008122e+00	1.004231e+00	1.000205e+00	9.963437e-01	9.928880e-01	9.900045e-01	9.877339e-01	9.859915e-01	9.846132e-01	9.834463e-01	9.825309e-01	9.821209e-01	9.994370e-01	9.994507e-01	9.994525e-01	9.994500e-01	9.994493e-01	9.994473e-01	9.994444e-01	9.994408e-01	9.994369e-01	9.994342e-01	9.994325e-01	9.994313e-01	9.994300e-01	9.994288e-01	9.994277e-01	9.994273e-01	9.994245e-01	9.994269e-01	9.994256e-01	9.994239e-01	9.994224e-01	9.994176e-01	9.994133e-01	9.994096e-01	9.994022e-01	9.993977e-01	9.993943e-01	9.993910e-01	9.993882e-01	9.993849e-01	9.993806e-01	9.993758e-01	9.993709e-01	9.993663e-01	9.993627e-01	9.993653e-01	9.993947e-01	9.995402e-01	1.000124e+00	1.001891e+00	1.005474e+00	1.010119e+00	1.014034e+00	1.016258e+00	1.017071e+00	1.017181e+00	1.017016e+00	1.015923e+00	1.013346e+00	1.009811e+00	1.005957e+00	1.002115e+00	9.985419e-01	9.954968e-01	9.931648e-01	9.916229e-01	9.908007e-01	9.904874e-01	9.904306e-01	9.904608e-01	9.907440e-01	9.914774e-01	9.925096e-01	9.935757e-01	9.945225e-01	9.952853e-01	9.958607e-01	9.962825e-01	9.965912e-01	9.968166e-01	9.969748e-01	9.970733e-01	9.971210e-01	9.971318e-01	9.971211e-01	9.971030e-01	9.970981e-01	9.971848e-01	9.976561e-01	9.992383e-01	1.002681e+00	1.007419e+00	1.011631e+00	1.014139e+00	1.015091e+00	1.015194e+00	1.015006e+00	1.014040e+00	1.011616e+00	1.008139e+00	1.004247e+00	1.000261e+00	9.964180e-01	9.929607e-01	9.900600e-01	9.877724e-01	9.860203e-01	9.846407e-01	9.834580e-01	9.825314e-01	9.821134e-01	9.994332e-01	9.994454e-01	9.994492e-01	9.994478e-01	9.994461e-01	9.994435e-01	9.994404e-01	9.994361e-01	9.994332e-01	9.994315e-01	9.994306e-01	9.994302e-01	9.994296e-01	9.994283e-01	9.994263e-01	9.994243e-01	9.994216e-01	9.994234e-01	9.994235e-01	9.994224e-01	9.994211e-01	9.994163e-01	9.994110e-01	9.994064e-01	9.993997e-01	9.993952e-01	9.993928e-01	9.993906e-01	9.993878e-01	9.993836e-01	9.993783e-01	9.993724e-01	9.993668e-01	9.993617e-01	9.993579e-01	9.993597e-01	9.993854e-01	9.995213e-01	1.000092e+00	1.001861e+00	1.005472e+00	1.010113e+00	1.013973e+00	1.016145e+00	1.016941e+00	1.017055e+00	1.016912e+00	1.015931e+00	1.013442e+00	1.009874e+00	1.006003e+00	1.002196e+00	9.986538e-01	9.956113e-01	9.932693e-01	9.917141e-01	9.908742e-01	9.905441e-01	9.904768e-01	9.904953e-01	9.907346e-01	9.914264e-01	9.924618e-01	9.935370e-01	9.944805e-01	9.952421e-01	9.958242e-01	9.962549e-01	9.965708e-01	9.968010e-01	9.969614e-01	9.970604e-01	9.971078e-01	9.971180e-01	9.971062e-01	9.970870e-01	9.970810e-01	9.971640e-01	9.976295e-01	9.992186e-01	1.002688e+00	1.007421e+00	1.011579e+00	1.014020e+00	1.014947e+00	1.015059e+00	1.014889e+00	1.014017e+00	1.011695e+00	1.008201e+00	1.004283e+00	1.000318e+00	9.965014e-01	9.930472e-01	9.901324e-01	9.878259e-01	9.860570e-01	9.846622e-01	9.834571e-01	9.825371e-01	9.821256e-01	9.994291e-01	9.994386e-01	9.994421e-01	9.994410e-01	9.994395e-01	9.994374e-01	9.994349e-01	9.994322e-01	9.994303e-01	9.994293e-01	9.994291e-01	9.994295e-01	9.994295e-01	9.994284e-01	9.994257e-01	9.994222e-01	9.994179e-01	9.994175e-01	9.994171e-01	9.994164e-01	9.994151e-01	9.994108e-01	9.994056e-01	9.994016e-01	9.993960e-01	9.993942e-01	9.993929e-01	9.993910e-01	9.993876e-01	9.993826e-01	9.993765e-01	9.993701e-01	9.993642e-01	9.993590e-01	9.993553e-01	9.993567e-01	9.993798e-01	9.995090e-01	1.000069e+00	1.001830e+00	1.005443e+00	1.010070e+00	1.013884e+00	1.016014e+00	1.016793e+00	1.016908e+00	1.016784e+00	1.015896e+00	1.013529e+00	1.009979e+00	1.006077e+00	1.002281e+00	9.987791e-01	9.957521e-01	9.934005e-01	9.918255e-01	9.909624e-01	9.906114e-01	9.905287e-01	9.905391e-01	9.907320e-01	9.913606e-01	9.923771e-01	9.934671e-01	9.944195e-01	9.951839e-01	9.957714e-01	9.962105e-01	9.965350e-01	9.967714e-01	9.969351e-01	9.970352e-01	9.970827e-01	9.970929e-01	9.970815e-01	9.970634e-01	9.970595e-01	9.971447e-01	9.976109e-01	9.992006e-01	1.002669e+00	1.007385e+00	1.011488e+00	1.013883e+00	1.014788e+00	1.014900e+00	1.014742e+00	1.013951e+00	1.011756e+00	1.008298e+00	1.004348e+00	1.000380e+00	9.965904e-01	9.931469e-01	9.902211e-01	9.878942e-01	9.860981e-01	9.846732e-01	9.834430e-01	9.825414e-01	9.821476e-01	9.994274e-01	9.994342e-01	9.994369e-01	9.994357e-01	9.994345e-01	9.994335e-01	9.994325e-01	9.994308e-01	9.994295e-01	9.994289e-01	9.994290e-01	9.994294e-01	9.994295e-01	9.994285e-01	9.994258e-01	9.994215e-01	9.994166e-01	9.994141e-01	9.994121e-01	9.994114e-01	9.994099e-01	9.994062e-01	9.994021e-01	9.993993e-01	9.993953e-01	9.993937e-01	9.993925e-01	9.993900e-01	9.993860e-01	9.993806e-01	9.993743e-01	9.993680e-01	9.993626e-01	9.993579e-01	9.993546e-01	9.993554e-01	9.993772e-01	9.995020e-01	1.000053e+00	1.001801e+00	1.005392e+00	1.009986e+00	1.013763e+00	1.015867e+00	1.016636e+00	1.016749e+00	1.016641e+00	1.015841e+00	1.013610e+00	1.010125e+00	1.006200e+00	1.002400e+00	9.989285e-01	9.959250e-01	9.935680e-01	9.919651e-01	9.910683e-01	9.906902e-01	9.905933e-01	9.905944e-01	9.907410e-01	9.912956e-01	9.922725e-01	9.933730e-01	9.943453e-01	9.951223e-01	9.957177e-01	9.961662e-01	9.964993e-01	9.967411e-01	9.969075e-01	9.970085e-01	9.970566e-01	9.970678e-01	9.970583e-01	9.970426e-01	9.970423e-01	9.971331e-01	9.976056e-01	9.991913e-01	1.002631e+00	1.007299e+00	1.011357e+00	1.013726e+00	1.014620e+00	1.014731e+00	1.014577e+00	1.013861e+00	1.011803e+00	1.008424e+00	1.004456e+00	1.000473e+00	9.966993e-01	9.932697e-01	9.903344e-01	9.879790e-01	9.861465e-01	9.846801e-01	9.834233e-01	9.825494e-01	9.821841e-01	9.994281e-01	9.994313e-01	9.994342e-01	9.994323e-01	9.994314e-01	9.994313e-01	9.994312e-01	9.994307e-01	9.994308e-01	9.994306e-01	9.994303e-01	9.994304e-01	9.994301e-01	9.994289e-01	9.994264e-01	9.994225e-01	9.994187e-01	9.994140e-01	9.994134e-01	9.994112e-01	9.994095e-01	9.994059e-01	9.994042e-01	9.994003e-01	9.993969e-01	9.993949e-01	9.993928e-01	9.993896e-01	9.993852e-01	9.993797e-01	9.993735e-01	9.993678e-01	9.993621e-01	9.993570e-01	9.993537e-01	9.993547e-01	9.993749e-01	9.994974e-01	1.000045e+00	1.001777e+00	1.005325e+00	1.009862e+00	1.013602e+00	1.015697e+00	1.016470e+00	1.016587e+00	1.016493e+00	1.015775e+00	1.013691e+00	1.010310e+00	1.006397e+00	1.002579e+00	9.991175e-01	9.961365e-01	9.937758e-01	9.921387e-01	9.911970e-01	9.907834e-01	9.906698e-01	9.906626e-01	9.907679e-01	9.912421e-01	9.921642e-01	9.932643e-01	9.942616e-01	9.950582e-01	9.956680e-01	9.961278e-01	9.964693e-01	9.967157e-01	9.968841e-01	9.969863e-01	9.970356e-01	9.970486e-01	9.970410e-01	9.970277e-01	9.970314e-01	9.971303e-01	9.976145e-01	9.991940e-01	1.002580e+00	1.007171e+00	1.011184e+00	1.013541e+00	1.014440e+00	1.014556e+00	1.014409e+00	1.013761e+00	1.011846e+00	1.008579e+00	1.004631e+00	1.000623e+00	9.968459e-01	9.934276e-01	9.904821e-01	9.880865e-01	9.862003e-01	9.846812e-01	9.834019e-01	9.825703e-01	9.822463e-01	9.994278e-01	9.994314e-01	9.994325e-01	9.994313e-01	9.994302e-01	9.994301e-01	9.994309e-01	9.994314e-01	9.994315e-01	9.994325e-01	9.994325e-01	9.994319e-01	9.994311e-01	9.994296e-01	9.994272e-01	9.994240e-01	9.994201e-01	9.994177e-01	9.994142e-01	9.994136e-01	9.994114e-01	9.994087e-01	9.994064e-01	9.994031e-01	9.994002e-01	9.993973e-01	9.993947e-01	9.993913e-01	9.993869e-01	9.993813e-01	9.993749e-01	9.993681e-01	9.993612e-01	9.993568e-01	9.993542e-01	9.993540e-01	9.993727e-01	9.994958e-01	1.000045e+00	1.001762e+00	1.005247e+00	1.009702e+00	1.013402e+00	1.015499e+00	1.016287e+00	1.016416e+00	1.016337e+00	1.015698e+00	1.013768e+00	1.010515e+00	1.006646e+00	1.002820e+00	9.993571e-01	9.963868e-01	9.940185e-01	9.923442e-01	9.913511e-01	9.908934e-01	9.907544e-01	9.907390e-01	9.908101e-01	9.912018e-01	9.920552e-01	9.931451e-01	9.941672e-01	9.949893e-01	9.956172e-01	9.960896e-01	9.964391e-01	9.966910e-01	9.968621e-01	9.969662e-01	9.970172e-01	9.970317e-01	9.970256e-01	9.970144e-01	9.970226e-01	9.971322e-01	9.976329e-01	9.992063e-01	1.002521e+00	1.007009e+00	1.010966e+00	1.013322e+00	1.014239e+00	1.014369e+00	1.014232e+00	1.013653e+00	1.011884e+00	1.008751e+00	1.004853e+00	1.000834e+00	9.970424e-01	9.936238e-01	9.906625e-01	9.882160e-01	9.862563e-01	9.846747e-01	9.833841e-01	9.826140e-01	9.823400e-01	9.994279e-01	9.994318e-01	9.994322e-01	9.994314e-01	9.994300e-01	9.994296e-01	9.994303e-01	9.994311e-01	9.994321e-01	9.994321e-01	9.994331e-01	9.994332e-01	9.994319e-01	9.994298e-01	9.994273e-01	9.994244e-01	9.994209e-01	9.994188e-01	9.994158e-01	9.994125e-01	9.994108e-01	9.994081e-01	9.994072e-01	9.994047e-01	9.994015e-01	9.993993e-01	9.993968e-01	9.993935e-01	9.993892e-01	9.993834e-01	9.993761e-01	9.993678e-01	9.993606e-01	9.993564e-01	9.993536e-01	9.993531e-01	9.993715e-01	9.994968e-01	1.000053e+00	1.001753e+00	1.005157e+00	1.009510e+00	1.013164e+00	1.015269e+00	1.016082e+00	1.016229e+00	1.016164e+00	1.015605e+00	1.013835e+00	1.010728e+00	1.006925e+00	1.003109e+00	9.996423e-01	9.966719e-01	9.942901e-01	9.925756e-01	9.915275e-01	9.910196e-01	9.908487e-01	9.908203e-01	9.908632e-01	9.911721e-01	9.919404e-01	9.930075e-01	9.940521e-01	9.949045e-01	9.955551e-01	9.960424e-01	9.964024e-01	9.966609e-01	9.968366e-01	9.969434e-01	9.969963e-01	9.970121e-01	9.970074e-01	9.969986e-01	9.970125e-01	9.971358e-01	9.976568e-01	9.992243e-01	1.002454e+00	1.006818e+00	1.010707e+00	1.013068e+00	1.014011e+00	1.014162e+00	1.014036e+00	1.013526e+00	1.011905e+00	1.008925e+00	1.005104e+00	1.001092e+00	9.972843e-01	9.938512e-01	9.908641e-01	9.883580e-01	9.863132e-01	9.846646e-01	9.833788e-01	9.826812e-01	9.824598e-01	9.994261e-01	9.994309e-01	9.994315e-01	9.994311e-01	9.994295e-01	9.994286e-01	9.994287e-01	9.994296e-01	9.994310e-01	9.994324e-01	9.994313e-01	9.994319e-01	9.994312e-01	9.994294e-01	9.994267e-01	9.994240e-01	9.994210e-01	9.994188e-01	9.994159e-01	9.994131e-01	9.994104e-01	9.994085e-01	9.994064e-01	9.994039e-01	9.994018e-01	9.993999e-01	9.993975e-01	9.993944e-01	9.993899e-01	9.993835e-01	9.993751e-01	9.993667e-01	9.993586e-01	9.993538e-01	9.993513e-01	9.993516e-01	9.993715e-01	9.995019e-01	1.000069e+00	1.001751e+00	1.005058e+00	1.009289e+00	1.012891e+00	1.015008e+00	1.015850e+00	1.016019e+00	1.015970e+00	1.015492e+00	1.013884e+00	1.010939e+00	1.007223e+00	1.003429e+00	9.999614e-01	9.969866e-01	9.945884e-01	9.928313e-01	9.917220e-01	9.911573e-01	9.909490e-01	9.909064e-01	9.909253e-01	9.911533e-01	9.918187e-01	9.928431e-01	9.939056e-01	9.947939e-01	9.954740e-01	9.959810e-01	9.963543e-01	9.966224e-01	9.968038e-01	9.969136e-01	9.969684e-01	9.969858e-01	9.969830e-01	9.969783e-01	9.970000e-01	9.971398e-01	9.976845e-01	9.992450e-01	1.002381e+00	1.006601e+00	1.010413e+00	1.012778e+00	1.013755e+00	1.013929e+00	1.013815e+00	1.013368e+00	1.011900e+00	1.009088e+00	1.005366e+00	1.001379e+00	9.975570e-01	9.940992e-01	9.910749e-01	9.885021e-01	9.863689e-01	9.846565e-01	9.833881e-01	9.827716e-01	9.825995e-01	9.994226e-01	9.994289e-01	9.994295e-01	9.994299e-01	9.994285e-01	9.994271e-01	9.994267e-01	9.994275e-01	9.994289e-01	9.994312e-01	9.994311e-01	9.994297e-01	9.994292e-01	9.994275e-01	9.994253e-01	9.994228e-01	9.994200e-01	9.994175e-01	9.994142e-01	9.994107e-01	9.994076e-01	9.994053e-01	9.994039e-01	9.994016e-01	9.993996e-01	9.993980e-01	9.993960e-01	9.993929e-01	9.993884e-01	9.993815e-01	9.993729e-01	9.993638e-01	9.993552e-01	9.993501e-01	9.993479e-01	9.993498e-01	9.993731e-01	9.995130e-01	1.000095e+00	1.001754e+00	1.004951e+00	1.009044e+00	1.012586e+00	1.014717e+00	1.015594e+00	1.015786e+00	1.015752e+00	1.015353e+00	1.013910e+00	1.011145e+00	1.007536e+00	1.003776e+00	1.000310e+00	9.973287e-01	9.949131e-01	9.931136e-01	9.919381e-01	9.913072e-01	9.910545e-01	9.909938e-01	9.909955e-01	9.911497e-01	9.916998e-01	9.926561e-01	9.937262e-01	9.946533e-01	9.953707e-01	9.959040e-01	9.962947e-01	9.965737e-01	9.967610e-01	9.968742e-01	9.969316e-01	9.969519e-01	9.969532e-01	9.969539e-01	9.969862e-01	9.971457e-01	9.977164e-01	9.992700e-01	1.002303e+00	1.006366e+00	1.010088e+00	1.012457e+00	1.013471e+00	1.013672e+00	1.013569e+00	1.013180e+00	1.011865e+00	1.009233e+00	1.005628e+00	1.001681e+00	9.978510e-01	9.943622e-01	9.912897e-01	9.886428e-01	9.864216e-01	9.846542e-01	9.834170e-01	9.828861e-01	9.827571e-01	9.994179e-01	9.994253e-01	9.994265e-01	9.994279e-01	9.994269e-01	9.994255e-01	9.994247e-01	9.994253e-01	9.994269e-01	9.994288e-01	9.994299e-01	9.994286e-01	9.994266e-01	9.994255e-01	9.994236e-01	9.994218e-01	9.994194e-01	9.994170e-01	9.994135e-01	9.994094e-01	9.994058e-01	9.994033e-01	9.994018e-01	9.993996e-01	9.993974e-01	9.993956e-01	9.993935e-01	9.993901e-01	9.993852e-01	9.993782e-01	9.993701e-01	9.993600e-01	9.993519e-01	9.993471e-01	9.993451e-01	9.993481e-01	9.993757e-01	9.995299e-01	1.000129e+00	1.001762e+00	1.004839e+00	1.008781e+00	1.012250e+00	1.014396e+00	1.015315e+00	1.015534e+00	1.015514e+00	1.015188e+00	1.013916e+00	1.011344e+00	1.007863e+00	1.004153e+00	1.000692e+00	9.977016e-01	9.952657e-01	9.934240e-01	9.921816e-01	9.914774e-01	9.911707e-01	9.910836e-01	9.910740e-01	9.911658e-01	9.915950e-01	9.924612e-01	9.935232e-01	9.944880e-01	9.952480e-01	9.958129e-01	9.962245e-01	9.965164e-01	9.967108e-01	9.968277e-01	9.968882e-01	9.969126e-01	9.969195e-01	9.969282e-01	9.969726e-01	9.971548e-01	9.977548e-01	9.992991e-01	1.002224e+00	1.006120e+00	1.009739e+00	1.012107e+00	1.013161e+00	1.013391e+00	1.013300e+00	1.012966e+00	1.011801e+00	1.009359e+00	1.005889e+00	1.001997e+00	9.981640e-01	9.946415e-01	9.915118e-01	9.887837e-01	9.864755e-01	9.846650e-01	9.834763e-01	9.830245e-01	9.829317e-01	9.994136e-01	9.994212e-01	9.994233e-01	9.994257e-01	9.994254e-01	9.994241e-01	9.994233e-01	9.994238e-01	9.994254e-01	9.994270e-01	9.994283e-01	9.994276e-01	9.994257e-01	9.994235e-01	9.994224e-01	9.994207e-01	9.994188e-01	9.994163e-01	9.994128e-01	9.994082e-01	9.994040e-01	9.994015e-01	9.994000e-01	9.993978e-01	9.993956e-01	9.993935e-01	9.993911e-01	9.993876e-01	9.993825e-01	9.993760e-01	9.993677e-01	9.993569e-01	9.993487e-01	9.993447e-01	9.993433e-01	9.993465e-01	9.993792e-01	9.995521e-01	1.000169e+00	1.001771e+00	1.004727e+00	1.008507e+00	1.011889e+00	1.014046e+00	1.015012e+00	1.015264e+00	1.015259e+00	1.015001e+00	1.013899e+00	1.011536e+00	1.008201e+00	1.004558e+00	1.001113e+00	9.981126e-01	9.956520e-01	9.937652e-01	9.924557e-01	9.916753e-01	9.913049e-01	9.911827e-01	9.911607e-01	9.912050e-01	9.915140e-01	9.922708e-01	9.933063e-01	9.943063e-01	9.951113e-01	9.957119e-01	9.961472e-01	9.964537e-01	9.966567e-01	9.967789e-01	9.968437e-01	9.968728e-01	9.968855e-01	9.969019e-01	9.969601e-01	9.971679e-01	9.977980e-01	9.993320e-01	1.002146e+00	1.005866e+00	1.009370e+00	1.011729e+00	1.012826e+00	1.013092e+00	1.013013e+00	1.012728e+00	1.011715e+00	1.009472e+00	1.006152e+00	1.002328e+00	9.984997e-01	9.949434e-01	9.917507e-01	9.889350e-01	9.865432e-01	9.847030e-01	9.835758e-01	9.831999e-01	9.831244e-01	9.994114e-01	9.994173e-01	9.994211e-01	9.994237e-01	9.994241e-01	9.994233e-01	9.994226e-01	9.994232e-01	9.994247e-01	9.994261e-01	9.994272e-01	9.994272e-01	9.994257e-01	9.994238e-01	9.994211e-01	9.994204e-01	9.994179e-01	9.994153e-01	9.994114e-01	9.994065e-01	9.994018e-01	9.993993e-01	9.993981e-01	9.993964e-01	9.993942e-01	9.993926e-01	9.993896e-01	9.993862e-01	9.993815e-01	9.993746e-01	9.993654e-01	9.993553e-01	9.993470e-01	9.993429e-01	9.993420e-01	9.993449e-01	9.993846e-01	9.995779e-01	1.000212e+00	1.001783e+00	1.004615e+00	1.008227e+00	1.011509e+00	1.013670e+00	1.014685e+00	1.014974e+00	1.014984e+00	1.014793e+00	1.013862e+00	1.011716e+00	1.008547e+00	1.004988e+00	1.001571e+00	9.985673e-01	9.960802e-01	9.941440e-01	9.927639e-01	9.919034e-01	9.914628e-01	9.912951e-01	9.912572e-01	9.912666e-01	9.914656e-01	9.920913e-01	9.930789e-01	9.941093e-01	9.949633e-01	9.956047e-01	9.960670e-01	9.963897e-01	9.966028e-01	9.967319e-01	9.968017e-01	9.968350e-01	9.968524e-01	9.968761e-01	9.969488e-01	9.971840e-01	9.978465e-01	9.993691e-01	1.002068e+00	1.005606e+00	1.008986e+00	1.011327e+00	1.012467e+00	1.012772e+00	1.012708e+00	1.012469e+00	1.011604e+00	1.009569e+00	1.006417e+00	1.002678e+00	9.988632e-01	9.952747e-01	9.920157e-01	9.891092e-01	9.866350e-01	9.847834e-01	9.837290e-01	9.834096e-01	9.833314e-01	9.994126e-01	9.994150e-01	9.994192e-01	9.994222e-01	9.994230e-01	9.994231e-01	9.994228e-01	9.994231e-01	9.994247e-01	9.994259e-01	9.994270e-01	9.994270e-01	9.994261e-01	9.994244e-01	9.994218e-01	9.994185e-01	9.994169e-01	9.994133e-01	9.994092