# vtk DataFile Version 3.0
vtk output
ASCII
DATASET STRUCTURED_GRID
DIMENSIONS 101 101 1
POINTS 10201 double
0.000000e+00	0.000000e+00	0.0	1.000000e-02	0.000000e+00	0.0	2.000000e-02	0.000000e+00	0.0	3.000000e-02	0.000000e+00	0.0	4.000000e-02	0.000000e+00	0.0	5.000000e-02	0.000000e+00	0.0	6.000000e-02	0.000000e+00	0.0	7.000000e-02	0.000000e+00	0.0	8.000000e-02	0.000000e+00	0.0	9.000000e-02	0.000000e+00	0.0	1.000000e-01	0.000000e+00	0.0	1.100000e-01	0.000000e+00	0.0	1.200000e-01	0.000000e+00	0.0	1.300000e-01	0.000000e+00	0.0	1.400000e-01	0.000000e+00	0.0	1.500000e-01	0.000000e+00	0.0	1.600000e-01	0.000000e+00	0.0	1.700000e-01	0.000000e+00	0.0	1.800000e-01	0.000000e+00	0.0	1.900000e-01	0.000000e+00	0.0	2.000000e-01	0.000000e+00	0.0	2.100000e-01	0.000000e+00	0.0	2.200000e-01	0.000000e+00	0.0	2.300000e-01	0.000000e+00	0.0	2.400000e-01	0.000000e+00	0.0	2.500000e-01	0.000000e+00	0.0	2.600000e-01	0.000000e+00	0.0	2.700000e-01	0.000000e+00	0.0	2.800000e-01	0.000000e+00	0.0	2.900000e-01	0.000000e+00	0.0	3.000000e-01	0.000000e+00	0.0	3.100000e-01	0.000000e+00	0.0	3.200000e-01	0.000000e+00	0.0	3.300000e-01	0.000000e+00	0.0	3.400000e-01	0.000000e+00	0.0	3.500000e-01	0.000000e+00	0.0	3.600000e-01	0.000000e+00	0.0	3.700000e-01	0.000000e+00	0.0	3.800000e-01	0.000000e+00	0.0	3.900000e-01	0.000000e+00	0.0	4.000000e-01	0.000000e+00	0.0	4.100000e-01	0.000000e+00	0.0	4.200000e-01	0.000000e+00	0.0	4.300000e-01	0.000000e+00	0.0	4.400000e-01	0.000000e+00	0.0	4.500000e-01	0.000000e+00	0.0	4.600000e-01	0.000000e+00	0.0	4.700000e-01	0.000000e+00	0.0	4.800000e-01	0.000000e+00	0.0	4.900000e-01	0.000000e+00	0.0	5.000000e-01	0.000000e+00	0.0	5.100000e-01	0.000000e+00	0.0	5.200000e-01	0.000000e+00	0.0	5.300000e-01	0.000000e+00	0.0	5.400000e-01	0.000000e+00	0.0	5.500000e-01	0.000000e+00	0.0	5.600000e-01	0.000000e+00	0.0	5.700000e-01	0.000000e+00	0.0	5.800000e-01	0.000000e+00	0.0	5.900000e-01	0.000000e+00	0.0	6.000000e-01	0.000000e+00	0.0	6.100000e-01	0.000000e+00	0.0	6.200000e-01	0.000000e+00	0.0	6.300000e-01	0.000000e+00	0.0	6.400000e-01	0.000000e+00	0.0	6.500000e-01	0.000000e+00	0.0	6.600000e-01	0.000000e+00	0.0	6.700000e-01	0.000000e+00	0.0	6.800000e-01	0.000000e+00	0.0	6.900000e-01	0.000000e+00	0.0	7.000000e-01	0.000000e+00	0.0	7.100000e-01	0.000000e+00	0.0	7.200000e-01	0.000000e+00	0.0	7.300000e-01	0.000000e+00	0.0	7.400000e-01	0.000000e+00	0.0	7.500000e-01	0.000000e+00	0.0	7.600000e-01	0.000000e+00	0.0	7.700000e-01	0.000000e+00	0.0	7.800000e-01	0.000000e+00	0.0	7.900000e-01	0.000000e+00	0.0	8.000000e-01	0.000000e+00	0.0	8.100000e-01	0.000000e+00	0.0	8.200000e-01	0.000000e+00	0.0	8.300000e-01	0.000000e+00	0.0	8.400000e-01	0.000000e+00	0.0	8.500000e-01	0.000000e+00	0.0	8.600000e-01	0.000000e+00	0.0	8.700000e-01	0.000000e+00	0.0	8.800000e-01	0.000000e+00	0.0	8.900000e-01	0.000000e+00	0.0	9.000000e-01	0.000000e+00	0.0	9.100000e-01	0.000000e+00	0.0	9.200000e-01	0.000000e+00	0.0	9.300000e-01	0.000000e+00	0.0	9.400000e-01	0.000000e+00	0.0	9.500000e-01	0.000000e+00	0.0	9.600000e-01	0.000000e+00	0.0	9.700000e-01	0.000000e+00	0.0	9.800000e-01	0.000000e+00	0.0	9.900000e-01	0.000000e+00	0.0	1.000000e+00	0.000000e+00	0.0	0.000000e+00	1.000000e-02	0.0	1.000000e-02	1.000000e-02	0.0	2.000000e-02	1.000000e-02	0.0	3.000000e-02	1.000000e-02	0.0	4.000000e-02	1.000000e-02	0.0	5.000000e-02	1.000000e-02	0.0	6.000000e-02	1.000000e-02	0.0	7.000000e-02	1.000000e-02	0.0	8.000000e-02	1.000000e-02	0.0	9.000000e-02	1.000000e-02	0.0	1.000000e-01	1.000000e-02	0.0	1.100000e-01	1.000000e-02	0.0	1.200000e-01	1.000000e-02	0.0	1.300000e-01	1.000000e-02	0.0	1.400000e-01	1.000000e-02	0.0	1.500000e-01	1.000000e-02	0.0	1.600000e-01	1.000000e-02	0.0	1.700000e-01	1.000000e-02	0.0	1.800000e-01	1.000000e-02	0.0	1.900000e-01	1.000000e-02	0.0	2.000000e-01	1.000000e-02	0.0	2.100000e-01	1.000000e-02	0.0	2.200000e-01	1.000000e-02	0.0	2.300000e-01	1.000000e-02	0.0	2.400000e-01	1.000000e-02	0.0	2.500000e-01	1.000000e-02	0.0	2.600000e-01	1.000000e-02	0.0	2.700000e-01	1.000000e-02	0.0	2.800000e-01	1.000000e-02	0.0	2.900000e-01	1.000000e-02	0.0	3.000000e-01	1.000000e-02	0.0	3.100000e-01	1.000000e-02	0.0	3.200000e-01	1.000000e-02	0.0	3.300000e-01	1.000000e-02	0.0	3.400000e-01	1.000000e-02	0.0	3.500000e-01	1.000000e-02	0.0	3.600000e-01	1.000000e-02	0.0	3.700000e-01	1.000000e-02	0.0	3.800000e-01	1.000000e-02	0.0	3.900000e-01	1.000000e-02	0.0	4.000000e-01	1.000000e-02	0.0	4.100000e-01	1.000000e-02	0.0	4.200000e-01	1.000000e-02	0.0	4.300000e-01	1.000000e-02	0.0	4.400000e-01	1.000000e-02	0.0	4.500000e-01	1.000000e-02	0.0	4.600000e-01	1.000000e-02	0.0	4.700000e-01	1.000000e-02	0.0	4.800000e-01	1.000000e-02	0.0	4.900000e-01	1.000000e-02	0.0	5.000000e-01	1.000000e-02	0.0	5.100000e-01	1.000000e-02	0.0	5.200000e-01	1.000000e-02	0.0	5.300000e-01	1.000000e-02	0.0	5.400000e-01	1.000000e-02	0.0	5.500000e-01	1.000000e-02	0.0	5.600000e-01	1.000000e-02	0.0	5.700000e-01	1.000000e-02	0.0	5.800000e-01	1.000000e-02	0.0	5.900000e-01	1.000000e-02	0.0	6.000000e-01	1.000000e-02	0.0	6.100000e-01	1.000000e-02	0.0	6.200000e-01	1.000000e-02	0.0	6.300000e-01	1.000000e-02	0.0	6.400000e-01	1.000000e-02	0.0	6.500000e-01	1.000000e-02	0.0	6.600000e-01	1.000000e-02	0.0	6.700000e-01	1.000000e-02	0.0	6.800000e-01	1.000000e-02	0.0	6.900000e-01	1.000000e-02	0.0	7.000000e-01	1.000000e-02	0.0	7.100000e-01	1.000000e-02	0.0	7.200000e-01	1.000000e-02	0.0	7.300000e-01	1.000000e-02	0.0	7.400000e-01	1.000000e-02	0.0	7.500000e-01	1.000000e-02	0.0	7.600000e-01	1.000000e-02	0.0	7.700000e-01	1.000000e-02	0.0	7.800000e-01	1.000000e-02	0.0	7.900000e-01	1.000000e-02	0.0	8.000000e-01	1.000000e-02	0.0	8.100000e-01	1.000000e-02	0.0	8.200000e-01	1.000000e-02	0.0	8.300000e-01	1.000000e-02	0.0	8.400000e-01	1.000000e-02	0.0	8.500000e-01	1.000000e-02	0.0	8.600000e-01	1.000000e-02	0.0	8.700000e-01	1.000000e-02	0.0	8.800000e-01	1.000000e-02	0.0	8.900000e-01	1.000000e-02	0.0	9.000000e-01	1.000000e-02	0.0	9.100000e-01	1.000000e-02	0.0	9.200000e-01	1.000000e-02	0.0	9.300000e-01	1.000000e-02	0.0	9.400000e-01	1.000000e-02	0.0	9.500000e-01	1.000000e-02	0.0	9.600000e-01	1.000000e-02	0.0	9.700000e-01	1.000000e-02	0.0	9.800000e-01	1.000000e-02	0.0	9.900000e-01	1.000000e-02	0.0	1.000000e+00	1.000000e-02	0.0	0.000000e+00	2.000000e-02	0.0	1.000000e-02	2.000000e-02	0.0	2.000000e-02	2.000000e-02	0.0	3.000000e-02	2.000000e-02	0.0	4.000000e-02	2.000000e-02	0.0	5.000000e-02	2.000000e-02	0.0	6.000000e-02	2.000000e-02	0.0	7.000000e-02	2.000000e-02	0.0	8.000000e-02	2.000000e-02	0.0	9.000000e-02	2.000000e-02	0.0	1.000000e-01	2.000000e-02	0.0	1.100000e-01	2.000000e-02	0.0	1.200000e-01	2.000000e-02	0.0	1.300000e-01	2.000000e-02	0.0	1.400000e-01	2.000000e-02	0.0	1.500000e-01	2.000000e-02	0.0	1.600000e-01	2.000000e-02	0.0	1.700000e-01	2.000000e-02	0.0	1.800000e-01	2.000000e-02	0.0	1.900000e-01	2.000000e-02	0.0	2.000000e-01	2.000000e-02	0.0	2.100000e-01	2.000000e-02	0.0	2.200000e-01	2.000000e-02	0.0	2.300000e-01	2.000000e-02	0.0	2.400000e-01	2.000000e-02	0.0	2.500000e-01	2.000000e-02	0.0	2.600000e-01	2.000000e-02	0.0	2.700000e-01	2.000000e-02	0.0	2.800000e-01	2.000000e-02	0.0	2.900000e-01	2.000000e-02	0.0	3.000000e-01	2.000000e-02	0.0	3.100000e-01	2.000000e-02	0.0	3.200000e-01	2.000000e-02	0.0	3.300000e-01	2.000000e-02	0.0	3.400000e-01	2.000000e-02	0.0	3.500000e-01	2.000000e-02	0.0	3.600000e-01	2.000000e-02	0.0	3.700000e-01	2.000000e-02	0.0	3.800000e-01	2.000000e-02	0.0	3.900000e-01	2.000000e-02	0.0	4.000000e-01	2.000000e-02	0.0	4.100000e-01	2.000000e-02	0.0	4.200000e-01	2.000000e-02	0.0	4.300000e-01	2.000000e-02	0.0	4.400000e-01	2.000000e-02	0.0	4.500000e-01	2.000000e-02	0.0	4.600000e-01	2.000000e-02	0.0	4.700000e-01	2.000000e-02	0.0	4.800000e-01	2.000000e-02	0.0	4.900000e-01	2.000000e-02	0.0	5.000000e-01	2.000000e-02	0.0	5.100000e-01	2.000000e-02	0.0	5.200000e-01	2.000000e-02	0.0	5.300000e-01	2.000000e-02	0.0	5.400000e-01	2.000000e-02	0.0	5.500000e-01	2.000000e-02	0.0	5.600000e-01	2.000000e-02	0.0	5.700000e-01	2.000000e-02	0.0	5.800000e-01	2.000000e-02	0.0	5.900000e-01	2.000000e-02	0.0	6.000000e-01	2.000000e-02	0.0	6.100000e-01	2.000000e-02	0.0	6.200000e-01	2.000000e-02	0.0	6.300000e-01	2.000000e-02	0.0	6.400000e-01	2.000000e-02	0.0	6.500000e-01	2.000000e-02	0.0	6.600000e-01	2.000000e-02	0.0	6.700000e-01	2.000000e-02	0.0	6.800000e-01	2.000000e-02	0.0	6.900000e-01	2.000000e-02	0.0	7.000000e-01	2.000000e-02	0.0	7.100000e-01	2.000000e-02	0.0	7.200000e-01	2.000000e-02	0.0	7.300000e-01	2.000000e-02	0.0	7.400000e-01	2.000000e-02	0.0	7.500000e-01	2.000000e-02	0.0	7.600000e-01	2.000000e-02	0.0	7.700000e-01	2.000000e-02	0.0	7.800000e-01	2.000000e-02	0.0	7.900000e-01	2.000000e-02	0.0	8.000000e-01	2.000000e-02	0.0	8.100000e-01	2.000000e-02	0.0	8.200000e-01	2.000000e-02	0.0	8.300000e-01	2.000000e-02	0.0	8.400000e-01	2.000000e-02	0.0	8.500000e-01	2.000000e-02	0.0	8.600000e-01	2.000000e-02	0.0	8.700000e-01	2.000000e-02	0.0	8.800000e-01	2.000000e-02	0.0	8.900000e-01	2.000000e-02	0.0	9.000000e-01	2.000000e-02	0.0	9.100000e-01	2.000000e-02	0.0	9.200000e-01	2.000000e-02	0.0	9.300000e-01	2.000000e-02	0.0	9.400000e-01	2.000000e-02	0.0	9.500000e-01	2.000000e-02	0.0	9.600000e-01	2.000000e-02	0.0	9.700000e-01	2.000000e-02	0.0	9.800000e-01	2.000000e-02	0.0	9.900000e-01	2.000000e-02	0.0	1.000000e+00	2.000000e-02	0.0	0.000000e+00	3.000000e-02	0.0	1.000000e-02	3.000000e-02	0.0	2.000000e-02	3.000000e-02	0.0	3.000000e-02	3.000000e-02	0.0	4.000000e-02	3.000000e-02	0.0	5.000000e-02	3.000000e-02	0.0	6.000000e-02	3.000000e-02	0.0	7.000000e-02	3.000000e-02	0.0	8.000000e-02	3.000000e-02	0.0	9.000000e-02	3.000000e-02	0.0	1.000000e-01	3.000000e-02	0.0	1.100000e-01	3.000000e-02	0.0	1.200000e-01	3.000000e-02	0.0	1.300000e-01	3.000000e-02	0.0	1.400000e-01	3.000000e-02	0.0	1.500000e-01	3.000000e-02	0.0	1.600000e-01	3.000000e-02	0.0	1.700000e-01	3.000000e-02	0.0	1.800000e-01	3.000000e-02	0.0	1.900000e-01	3.000000e-02	0.0	2.000000e-01	3.000000e-02	0.0	2.100000e-01	3.000000e-02	0.0	2.200000e-01	3.000000e-02	0.0	2.300000e-01	3.000000e-02	0.0	2.400000e-01	3.000000e-02	0.0	2.500000e-01	3.000000e-02	0.0	2.600000e-01	3.000000
[...]
POINT_DATA 10201

SCALARS Height double 1
LOOKUP_TABLE default
9.535679e-01	9.564480e-01	9.608829e-01	9.693331e-01	9.813714e-01	9.959641e-01	1.010768e+00	1.023560e+00	1.033112e+00	1.038894e+00	1.040181e+00	1.033814e+00	1.018420e+00	1.002168e+00	9.923858e-01	9.887898e-01	9.880626e-01	9.881487e-01	9.883571e-01	9.885210e-01	9.885860e-01	9.885462e-01	9.884127e-01	9.881937e-01	9.878737e-01	9.874200e-01	9.868024e-01	9.859996e-01	9.849662e-01	9.836291e-01	9.818893e-01	9.796767e-01	9.770499e-01	9.743109e-01	9.719970e-01	9.705233e-01	9.699373e-01	9.700289e-01	9.707665e-01	9.725918e-01	9.757139e-01	9.806051e-01	9.877322e-01	9.974257e-01	1.009973e+00	1.024665e+00	1.039014e+00	1.050172e+00	1.057119e+00	1.060184e+00	1.059480e+00	1.051997e+00	1.035396e+00	1.016986e+00	1.005718e+00	1.001531e+00	1.000398e+00	1.000117e+00	1.000038e+00	1.000013e+00	1.000004e+00	1.000001e+00	1.000000e+00	1.000000e+00	1.000000e+00	1.000000e+00	1.000000e+00	1.000000e+00	1.000000e+00	1.000000e+00	1.000000e+00	1.000000e+00	1.000000e+00	1.000000e+00	1.000000e+00	1.000000e+00	1.000000e+00	1.000000e+00	1.000000e+00	1.000000e+00	1.000000e+00	1.000000e+00	1.000000e+00	1.000000e+00	1.000000e+00	1.000000e+00	1.000000e+00	1.000000e+00	1.000000e+00	1.000000e+00	1.000000e+00	1.000000e+00	1.000000e+00	1.000000e+00	1.000000e+00	1.000000e+00	1.000000e+00	1.000000e+00	1.000000e+00	1.000000e+00	1.000000e+00	9.564480e-01	9.592924e-01	9.635809e-01	9.717485e-01	9.833911e-01	9.975508e-01	1.011919e+00	1.024378e+00	1.032949e+00	1.036840e+00	1.037320e+00	1.030901e+00	1.016278e+00	1.000527e+00	9.909652e-01	9.875611e-01	9.870266e-01	9.872083e-01	9.874541e-01	9.876362e-01	9.877128e-01	9.876721e-01	9.875221e-01	9.872728e-01	9.869118e-01	9.864105e-01	9.857301e-01	9.848653e-01	9.837875e-01	9.824562e-01	9.808243e-01	9.788729e-01	9.766723e-01	9.744021e-01	9.723747e-01	9.708905e-01	9.703483e-01	9.705570e-01	9.714653e-01	9.736422e-01	9.771902e-01	9.823828e-01	9.897515e-01	9.996317e-01	1.012043e+00	1.026310e+00	1.040439e+00	1.051430e+00	1.057466e+00	1.059256e+00	1.058138e+00	1.050358e+00	1.034351e+00	1.016440e+00	1.005358e+00	1.001288e+00	1.000300e+00	1.000087e+00	1.000030e+00	1.000010e+00	1.000003e+00	1.000001e+00	1.000000e+00	1.000000e+00	1.000000e+00	1.000000e+00	1.000000e+00	1.000000e+00	1.000000e+00	1.000000e+00	1.000000e+00	1.000000e+00	1.000000e+00	1.000000e+00	1.000000e+00	1.000000e+00	1.000000e+00	1.000000e+00	1.000000e+00	1.000000e+00	1.000000e+00	1.000000e+00	1.000000e+00	1.000000e+00	1.000000e+00	1.000000e+00	1.000000e+00	1.000000e+00	1.000000e+00	1.000000e+00	1.000000e+00	1.000000e+00	1.000000e+00	1.000000e+00	1.000000e+00	1.000000e+00	1.000000e+00	1.000000e+00	1.000000e+00	1.000000e+00	1.000000e+00	9.608829e-01	9.635809e-01	9.677887e-01	9.755043e-01	9.859391e-01	9.984347e-01	1.011476e+00	1.022884e+00	1.030356e+00	1.033072e+00	1.032606e+00	1.026283e+00	1.015536e+00	1.003948e+00	9.939611e-01	9.884623e-01	9.866605e-01	9.864482e-01	9.866054e-01	9.867761e-01	9.868645e-01	9.868355e-01	9.866795e-01	9.864035e-01	9.860034e-01	9.854705e-01	9.847908e-01	9.839700e-01	9.830275e-01	9.819812e-01	9.808586e-01	9.796851e-01	9.784376e-01	9.769809e-01	9.751757e-01	9.734092e-01	9.722601e-01	9.721110e-01	9.730106e-01	9.756157e-01	9.796777e-01	9.851041e-01	9.922897e-01	1.001680e+00	1.012812e+00	1.024831e+00	1.036702e+00	1.046824e+00	1.053090e+00	1.054663e+00	1.053241e+00	1.046040e+00	1.033697e+00	1.021134e+00	1.009872e+00	1.002995e+00	1.000649e+00	1.000145e+00	1.000042e+00	1.000014e+00	1.000005e+00	1.000001e+00	1.000000e+00	1.000000e+00	1.000000e+00	1.000000e+00	1.000000e+00	1.000000e+00	1.000000e+00	1.000000e+00	1.000000e+00	1.000000e+00	1.000000e+00	1.000000e+00	1.000000e+00	1.000000e+00	1.000000e+00	1.000000e+00	1.000000e+00	1.000000e+00	1.000000e+00	1.000000e+00	1.000000e+00	1.000000e+00	1.000000e+00	1.000000e+00	1.000000e+00	1.000000e+00	1.000000e+00	1.000000e+00	1.000000e+00	1.000000e+00	1.000000e+00	1.000000e+00	1.000000e+00	1.000000e+00	1.000000e+00	1.000000e+00	1.000000e+00	1.000000e+00	1.000000e+00	9.693331e-01	9.717485e-01	9.755043e-01	9.824783e-01	9.913320e-01	1.001395e+00	1.011651e+00	1.020450e+00	1.025527e+00	1.026676e+00	1.025349e+00	1.019859e+00	1.012907e+00	1.005898e+00	9.975727e-01	9.897666e-01	9.859541e-01	9.849824e-01	9.849346e-01	9.850567e-01	9.851400e-01	9.851173e-01	9.849671e-01	9.846930e-01	9.843083e-01	9.838245e-01	9.832548e-01	9.826341e-01	9.820040e-01	9.813879e-01	9.807758e-01	9.801274e-01	9.794018e-01	9.785734e-01	9.777305e-01	9.768103e-01	9.760330e-01	9.759628e-01	9.768641e-01	9.796313e-01	9.840947e-01	9.900191e-01	9.974974e-01	1.006273e+00	1.015661e+00	1.024746e+00	1.033505e+00	1.042308e+00	1.047843e+00	1.048436e+00	1.046084e+00	1.038952e+00	1.030852e+00	1.023728e+00	1.015146e+00	1.006354e+00	1.001603e+00	1.000312e+00	1.000071e+00	1.000022e+00	1.000007e+00	1.000002e+00	1.000001e+00	1.000000e+00	1.000000e+00	1.000000e+00	1.000000e+00	1.000000e+00	1.000000e+00	1.000000e+00	1.000000e+00	1.000000e+00	1.000000e+00	1.000000e+00	1.000000e+00	1.000000e+00	1.000000e+00	1.000000e+00	1.000000e+00	1.000000e+00	1.000000e+00	1.000000e+00	1.000000e+00	1.000000e+00	1.000000e+00	1.000000e+00	1.000000e+00	1.000000e+00	1.000000e+00	1.000000e+00	1.000000e+00	1.000000e+00	1.000000e+00	1.000000e+00	1.000000e+00	1.000000e+00	1.000000e+00	1.000000e+00	1.000000e+00	1.000000e+00	1.000000e+00	9.813714e-01	9.833911e-01	9.859391e-01	9.913320e-01	9.976926e-01	1.004441e+00	1.010834e+00	1.016134e+00	1.019090e+00	1.019439e+00	1.017807e+00	1.014240e+00	1.010830e+00	1.007377e+00	1.001500e+00	9.932870e-01	9.868826e-01	9.842622e-01	9.836843e-01	9.836344e-01	9.836723e-01	9.836617e-01	9.835748e-01	9.834083e-01	9.831741e-01	9.828924e-01	9.825823e-01	9.822625e-01	9.819340e-01	9.815828e-01	9.811800e-01	9.807443e-01	9.804054e-01	9.803541e-01	9.805128e-01	9.807437e-01	9.810293e-01	9.815201e-01	9.828631e-01	9.858115e-01	9.905108e-01	9.966363e-01	1.003641e+00	1.010731e+00	1.017236e+00	1.023317e+00	1.029901e+00	1.036103e+00	1.039831e+00	1.040031e+00	1.037717e+00	1.032698e+00	1.028691e+00	1.025425e+00	1.019931e+00	1.011100e+00	1.003648e+00	1.000765e+00	1.000148e+00	1.000037e+00	1.000012e+00	1.000004e+00	1.000001e+00	1.000000e+00	1.000000e+00	1.000000e+00	1.000000e+00	1.000000e+00	1.000000e+00	1.000000e+00	1.000000e+00	1.000000e+00	1.000000e+00	1.000000e+00	1.000000e+00	1.000000e+00	1.000000e+00	1.000000e+00	1.000000e+00	1.000000e+00	1.000000e+00	1.000000e+00	1.000000e+00	1.000000e+00	1.000000e+00	1.000000e+00	1.000000e+00	1.000000e+00	1.000000e+00	1.000000e+00	1.000000e+00	1.000000e+00	1.000000e+00	1.000000e+00	1.000000e+00	1.000000e+00	1.000000e+00	1.000000e+00	1.000000e+00	1.000000e+00	1.000000e+00	9.959641e-01	9.975508e-01	9.984347e-01	1.001395e+00	1.004441e+00	1.007289e+00	1.009388e+00	1.010750e+00	1.011595e+00	1.012045e+00	1.011600e+00	1.010571e+00	1.009612e+00	1.008096e+00	1.004722e+00	9.975595e-01	9.895435e-01	9.851463e-01	9.836702e-01	9.833104e-01	9.832478e-01	9.832399e-01	9.832232e-01	9.831645e-01	9.830522e-01	9.828895e-01	9.826893e-01	9.824665e-01	9.822425e-01	9.820259e-01	9.818735e-01	9.819199e-01	9.822402e-01	9.829139e-01	9.840138e-01	9.854506e-01	9.870533e-01	9.887173e-01	9.907523e-01	9.937844e-01	9.983286e-01	1.003932e+00	1.009351e+00	1.013730e+00	1.017371e+00	1.021297e+00	1.025557e+00	1.028207e+00	1.029371e+00	1.030001e+00	1.029411e+00	1.028264e+00	1.027415e+00	1.026213e+00	1.023223e+00	1.015894e+00	1.006878e+00	1.001771e+00	1.000338e+00	1.000070e+00	1.000019e+00	1.000006e+00	1.000002e+00	1.000000e+00	1.000000e+00	1.000000e+00	1.000000e+00	1.000000e+00	1.000000e+00	1.000000e+00	1.000000e+00	1.000000e+00	1.000000e+00	1.000000e+00	1.000000e+00	1.000000e+00	1.000000e+00	1.000000e+00	1.000000e+00	1.000000e+00	1.000000e+00	1.000000e+00	1.000000e+00	1.000000e+00	1.000000e+00	1.000000e+00	1.000000e+00	1.000000e+00	1.000000e+00	1.000000e+00	1.000000e+00	1.000000e+00	1.000000e+00	1.000000e+00	1.000000e+00	1.000000e+00	1.000000e+00	1.000000e+00	1.000000e+00	1.000000e+00	1.000000e+00	1.010768e+00	1.011919e+00	1.011476e+00	1.011651e+00	1.010834e+00	1.009388e+00	1.007592e+00	1.005841e+00	1.004783e+00	1.005611e+00	1.008122e+00	1.009057e+00	1.009051e+00	1.009043e+00	1.007360e+00	1.001686e+00	9.932450e-01	9.869312e-01	9.843672e-01	9.836399e-01	9.834657e-01	9.834217e-01	9.834059e-01	9.833714e-01	9.833010e-01	9.832004e-01	9.830980e-01	9.830477e-01	9.830882e-01	9.832672e-01	9.836332e-01	9.843057e-01	9.853514e-01	9.868247e-01	9.887943e-01	9.912475e-01	9.940392e-01	9.969583e-01	9.999000e-01	1.003050e+00	1.006630e+00	1.010251e+00	1.012993e+00	1.014813e+00	1.016611e+00	1.018549e+00	1.019116e+00	1.018622e+00	1.018122e+00	1.019377e+00	1.023084e+00	1.025988e+00	1.026516e+00	1.026511e+00	1.024998e+00	1.019712e+00	1.010800e+00	1.003570e+00	1.000765e+00	1.000144e+00	1.000033e+00	1.000010e+00	1.000003e+00	1.000001e+00	1.000000e+00	1.000000e+00	1.000000e+00	1.000000e+00	1.000000e+00	1.000000e+00	1.000000e+00	1.000000e+00	1.000000e+00	1.000000e+00	1.000000e+00	1.000000e+00	1.000000e+00	1.000000e+00	1.000000e+00	1.000000e+00	1.000000e+00	1.000000e+00	1.000000e+00	1.000000e+00	1.000000e+00	1.000000e+00	1.000000e+00	1.000000e+00	1.000000e+00	1.000000e+00	1.000000e+00	1.000000e+00	1.000000e+00	1.000000e+00	1.000000e+00	1.000000e+00	1.000000e+00	1.000000e+00	1.000000e+00	1.000000e+00	1.000000e+00	1.023560e+00	1.024378e+00	1.022884e+00	1.020450e+00	1.016134e+00	1.010750e+00	1.005841e+00	1.002513e+00	1.000815e+00	1.001926e+00	1.006083e+00	1.009548e+00	1.010665e+00	1.010887e+00	1.009790e+00	1.005555e+00	9.977691e-01	9.900225e-01	9.859019e-01	9.845276e-01	9.841641e-01	9.840700e-01	9.840740e-01	9.841158e-01	9.841749e-01	9.842695e-01	9.844521e-01	9.847657e-01	9.852348e-01	9.859555e-01	9.869551e-01	9.883018e-01	9.900578e-01	9.922856e-01	9.950216e-01	9.982524e-01	1.001893e+00	1.005703e+00	1.009197e+00	1.011838e+00	1.013430e+00	1.014204e+00	1.014484e+00	1.014807e+00	1.014847e+00	1.013458e+00	1.010326e+00	1.008092e+00	1.007802e+00	1.011273e+00	1.018643e+00	1.024256e+00	1.026078e+00	1.026369e+00	1.025648e+00	1.022248e+00	1.014628e+00	1.006152e+00	1.001586e+00	1.000304e+00	1.000060e+00	1.000015e+00	1.000005e+00	1.000001e+00	1.000000e+00	1.000000e+00	1.000000e+00	1.000000e+00	1.000000e+00	1.000000e+00	1.000000e+00	1.000000e+00	1.000000e+00	1.000000e+00	1.000000e+00	1.000000e+00	1.000000e+00	1.000000e+00	1.000000e+00	1.000000e+00	1.000000e+00	1.000000e+00	1.000000e+00	1.000000e+00	1.000000e+00	1.000000e+00	1.000000e+00	1.000000e+00	1.000000e+00	1.000000e+00	1.000000e+00	1.000000e+00	1.000000e+00	1.000000e+00	1.000000e+00	1.000000e+00	1.000000e+00	1.000000e+00	1.000000e+00	1.000000e+00	1.000000e+00	1.033112e+00	1.032949e+00	1.030356e+00	1.025527e+00	1.019090e+00	1.011595e+00	1.004783e+00	1.000815e+00	9.990547e-01	1.001109e+00	1.007130e+00	1.012600e+00	1.014116e+00	1.013989e+00	1.013044e+00	1.009822e+00	1.003198e+00	9.948632e-01	9.890632e-01	9.867260e-01	9.860738e-01	9.859344e-01	9.859967e-01	9.861704e-01	9.864527e-01	9.868456e-01	9.874017e-01	9.881499e-01	9.891350e-01	9.904003e-01	9.919925e-01	9.939609e-01	9.963583e-01	9.992168e-01	1.002537e+00	1.006272e+00	1.010256e+00	1.014045e+00	1.016800e+00	1.017894e+00	1.017604e+00	1.016149e+00	1.014961e+00	1.013695e+00	1.010616e+00	1.005245e+00	1.000606e+00	9.989609e-01	1.000048e+00	1.006310e+00	1.015306e+00	1.022374e+00	1.025453e+00	1.025998e+00	1.025818e+00	1.023726e+00	1.017794e+00	1.009183e+00	1.002909e+00	1.000616e+00	1.000115e+00	1.000025e+00	1.000007e+00	1.000002e+00	1.000001e+00	1.000000e+00	1.000000e+00	1.000000e+00	1.000000e+00	1.000000e+00	1.000000e+00	1.000000e+00	1.000000e+00	1.000000e+00	1.000000e+00	1.000000e+00	1.000000e+00	1.000000e+00	1.000000e+00	1.000000e+00	1.000000e+00	1.000000e+00	1.000000e+00	1.000000e+00	1.000000e+00	1.000000e+00	1.000000e+00	1.000000e+00	1.000000e+00	1.000000e+00	1.000000e+00	1.000000e+00	1.000000e+00	1.000000e+00	1.000000e+00	1.000000e+00	1.000000e+00	1.000000e+00	1.000000e+00	1.000000e+00	1.000000e+00	1.038894e+00	1.036840e+00	1.033072e+00	1.026676e+00	1.019439e+00	1.012045e+00	1.005611e+00	1.001926e+00	1.001109e+00	1.004970e+00	1.011174e+00	1.016914e+00	1.019085e+00	1.018667e+00	1.017750e+00	1.015188e+00	1.009742e+00	1.001589e+00	9.944017e-01	9.908709e-01	9.897835e-01	9.896122e-01	9.897626e-01	9.900536e-01	9.905403e-01	9.912663e-01	9.922023e-01	9.933637e-01	9.947950e-01	9.965402e-01	9.986362e-01	1.001114e+00	1.003988e+00	1.007238e+00	1.010780e+00	1.014404e+00	1.017707e+00	1.020009e+00	1.020964e+00	1.020793e+00	1.019343e+00	1.016945e+00	1.013939e+00	1.009353e+00	1.002614e+00	9.961488e-01	9.929749e-01	9.926065e-01	9.957832e-01	1.003288e+00	1.012314e+00	1.020156e+00	1.024494e+00	1.025576e+00	1.025661e+00	1.024427e+00	1.020133e+00	1.012203e+00	1.004706e+00	1.001149e+00	1.000218e+00	1.000043e+00	1.000011e+00	1.000003e+00	1.000001e+00	1.000000e+00	1.000000e+00	1.000000e+00	1.000000e+00	1.000000e+00	1.000000e+00	1.000000e+00	1.000000e+00	1.000000e+00	1.000000e+00	1.000000e+00	1.000000e+00	1.000000e+00	1.000000e+00	1.000000e+00	1.000000e+00	1.000000e+00	1.000000e+00	1.000000e+00	1.000000e+00	1.000000e+00	1.000000e+00	1.000000e+00	1.000000e+00	1.000000e+00	1.000000e+00	1.000000e+00	1.000000e+00	1.000000e+00	1.000000e+00	1.000000e+00	1.000000e+00	1.000000e+00	1.000000e+00	1.000000e+00	1.000000e+00	1.040181e+00	1.037320e+00	1.032606e+00	1.025349e+00	1.017807e+00	1.011600e+00	1.008122e+00	1.006083e+00	1.007130e+00	1.011174e+00	1.016359e+00	1.021843e+00	1.025218e+00	1.025008e+00	1.023979e+00	1.021849e+00	1.017420e+00	1.009969e+00	1.001916e+00	9.970713e-01	9.955058e-01	9.952472e-01	9.954184e-01	9.957837e-01	9.964643e-01	9.974644e-01	9.987087e-01	1.000198e+00	1.001977e+00	1.004079e+00	1.006502e+00	1.009223e+00	1.012170e+00	1.015193e+00	1.018036e+00	1.020337e+00	1.021839e+00	1.022363e+00	1.022233e+00	1.021633e+00	1.019784e+00	1.015725e+00	1.009110e+00	1.000940e+00	9.938139e-01	9.897716e-01	9.886070e-01	9.893892e-01	9.937476e-01	1.000976e+00	1.009455e+00	1.017664e+00	1.023203e+00	1.025104e+00	1.025353e+00	1.024763e+00	1.021691e+00	1.014870e+00	1.006805e+00	1.001947e+00	1.000394e+00	1.000073e+00	1.000016e+00	1.000004e+00	1.000001e+00	1.000000e+00	1.000000e+00	1.000000e+00	1.000000e+00	1.000000e+00	1.000000e+00	1.000000e+00	1.000000e+00	1.000000e+00	1.000000e+00	1.000000e+00	1.000000e+00	1.000000e+00	1.000000e+00	1.000000e+00	1.000000e+00	1.000000e+00	1.000000e+00	1.000000e+00	1.000000e+00	1.000000e+00	1.000000e+00	1.000000e+00	1.000000e+00	1.000000e+00	1.000000e+00	1.000000e+00	1.000000e+00	1.000000e+00	1.000000e+00	1.000000e+00	1.000000e+00	1.000000e+00	1.000000e+00	1.000000e+00	1.000000e+00	1.033814e+00	1.030901e+00	1.026283e+00	1.019859e+00	1.014240e+00	1.010571e+00	1.009057e+00	1.009548e+00	1.012600e+00	1.016914e+00	1.021843e+00	1.027227e+00	1.031649e+00	1.032398e+00	1.031352e+00	1.029589e+00	1.025994e+00	1.019475e+00	1.011164e+00	1.005119e+00	1.002927e+00	1.002564e+00	1.002649e+00	1.003060e+00	1.003873e+00	1.005045e+00	1.006469e+00	1.008130e+00	1.010039e+00	1.012163e+00	1.014424e+00	1.016702e+00	1.018837e+00	1.020600e+00	1.021880e+00	1.022572e+00	1.022844e+00	1.022851e+00	1.022513e+00	1.021164e+00	1.017366e+00	1.009966e+00	1.000402e+00	9.925563e-01	9.883395e-01	9.868898e-01	9.867472e-01	9.882858e-01	9.925046e-01	9.989019e-01	1.006778e+00	1.015149e+00	1.021708e+00	1.024543e+00	1.025034e+00	1.024824e+00	1.022681e+00	1.017025e+00	1.008973e+00	1.002991e+00	1.000666e+00	1.000124e+00	1.000025e+00	1.000006e+00	1.000002e+00	1.000000e+00	1.000000e+00	1.000000e+00	1.000000e+00	1.000000e+00	1.000000e+00	1.000000e+00	1.000000e+00	1.000000e+00	1.000000e+00	1.000000e+00	1.000000e+00	1.000000e+00	1.000000e+00	1.000000e+00	1.000000e+00	1.000000e+00	1.000000e+00	1.000000e+00	1.000000e+00	1.000000e+00	1.000000e+00	1.000000e+00	1.000000e+00	1.000000e+00	1.000000e+00	1.000000e+00	1.000000e+00	1.000000e+00	1.000000e+00	1.000000e+00	1.000000e+00	1.000000e+00	1.000000e+00	1.000000e+00	1.000000e+00	1.018420e+00	1.016278e+00	1.015536e+00	1.012907e+00	1.010830e+00	1.009612e+00	1.009051e+00	1.010665e+00	1.014116e+00	1.019085e+00	1.025218e+00	1.031649e+00	1.037161e+00	1.039414e+00	1.038651e+00	1.037278e+00	1.034510e+00	1.029076e+00	1.021101e+00	1.014214e+00	1.011205e+00	1.010630e+00	1.010640e+00	1.010985e+00	1.011778e+00	1.012902e+00	1.014216e+00	1.015654e+00	1.017150e+00	1.018609e+00	1.019931e+00	1.021043e+00	1.021876e+00	1.022426e+00	1.022769e+00	1.022991e+00	1.022929e+00	1.022423e+00	1.020905e+00	1.017071e+00	1.009985e+00	1.000841e+00	9.928214e-01	9.882368e-01	9.864986e-01	9.860772e-01	9.863012e-01	9.878800e-01	9.914683e-01	9.970348e-01	1.004399e+00	1.012792e+00	1.020090e+00	1.023882e+00	1.024731e+00	1.024719e+00	1.023252e+00	1.018653e+00	1.011009e+00	1.004209e+00	1.001045e+00	1.000200e+00	1.000038e+00	1.000009e+00	1.000002e+00	1.000001e+00	1.000000e+00	1.000000e+00	1.000000e+00	1.000000e+00	1.000000e+00	1.000000e+00	1.000000e+00	1.000000e+00	1.000000e+00	1.000000e+00	1.000000e+00	1.000000e+00	1.000000e+00	1.000000e+00	1.000000e+00	1.000000e+00	1.000000e+00	1.000000e+00	1.000000e+00	1.000000e+00	1.000000e+00	1.000000e+00	1.000000e+00	1.000000e+00	1.000000e+00	1.000000e+00	1.000000e+00	1.000000e+00	1.000000e+00	1.000000e+00	1.000000e+00	1.000000e+00	1.000000e+00	1.000000e+00	1.000000e+00	1.002168e+00	1.000527e+00	1.003948e+00	1.005898e+00	1.007377e+00	1.008096e+00	1.009043e+00	1.010887e+00	1.013989e+00	1.018667e+00	1.025008e+00	1.032398e+00	1.039414e+00	1.043760e+00	1.044124e+00	1.043181e+00	1.041176e+00	1.036776e+00	1.029542e+00	1.022283e+00	1.018439e+00	1.017458e+00	1.017353e+00	1.017522e+00	1.018026e+00	1.018748e+00	1.019523e+00	1.020249e+00	1.020886e+00	1.021415e+00	1.021839e+00	1.022192e+00	1.022498e+00	1.022762e+00	1.022807e+00	1.022470e+00	1.021490e+00	1.019179e+00	1.014694e+00	1.008005e+00	1.000651e+00	9.943986e-01	9.899387e-01	9.872501e-01	9.862597e-01	9.861104e-01	9.863410e-01	9.876349e-01	9.905430e-01	9.954585e-01	1.002396e+00	1.010690e+00	1.018474e+00	1.023137e+00	1.024431e+00	1.024553e+00	1.023587e+00	1.019838e+00	1.012787e+00	1.005495e+00	1.001517e+00	1.000305e+00	1.000056e+00	1.000012e+00	1.000003e+00	1.000001e+00	1.000000e+00	1.000000e+00	1.000000e+00	1.000000e+00	1.000000e+00	1.000000e+00	1.000000e+00	1.000000e+00	1.000000e+00	1.000000e+00	1.000000e+00	1.000000e+00	1.000000e+00	1.000000e+00	1.000000e+00	1.000000e+00	1.000000e+00	1.000000e+00	1.000000e+00	1.000000e+00	1.000000e+00	1.000000e+00	1.000000e+00	1.000000e+00	1.000000e+00	1.000000e+00	1.000000e+00	1.000000e+00	1.000000e+00	1.000000e+00	1.000000e+00	1.000000e+00	1.000000e+00	1.000000e+00	1.000000e+00	9.923858e-01	9.909652e-01	9.939611e-01	9.975727e-01	1.001500e+00	1.004722e+00	1.007360e+00	1.009790e+00	1.013044e+00	1.017750e+00	1.023979e+00	1.031352e+00	1.038651e+00	1.044124e+00	1.045935e+00	1.045724e+00	1.044549e+00	1.041109e+00	1.034568e+00	1.027133e+00	1.022521e+00	1.021011e+00	1.020735e+00	1.020654e+00	1.020779e+00	1.021033e+00	1.021290e+00	1.021519e+00	1.021732e+00	1.021945e+00	1.022177e+00	1.022353e+00	1.022365e+00	1.022034e+00	1.021180e+00	1.019370e+00	1.016099e+00	1.011108e+00	1.005055e+00	9.995063e-01	9.953834e-01	9.924185e-01	9.897772e-01	9.875114e-01	9.864493e-01	9.862950e-01	9.864556e-01	9.874060e-01	9.897900e-01	9.942140e-01	1.000764e+00	1.008879e+00	1.016946e+00	1.022345e+00	1.024135e+00	1.024369e+00	1.023738e+00	1.020691e+00	1.014250e+00	1.006747e+00	1.002052e+00	1.000438e+00	1.000081e+00	1.000016e+00	1.000004e+00	1.000001e+00	1.000000e+00	1.000000e+00	1.000000e+00	1.000000e+00	1.000000e+00	1.000000e+00	1.000000e+00	1.000000e+00	1.000000e+00	1.000000e+00	1.000000e+00	1.000000e+00	1.000000e+00	1.000000e+00	1.000000e+00	1.000000e+00	1.000000e+00	1.000000e+00	1.000000e+00	1.000000e+00	1.000000e+00	1.000000e+00	1.000000e+00	1.000000e+00	1.000000e+00	1.000000e+00	1.000000e+00	1.000000e+00	1.000000e+00	1.000000e+00	1.000000e+00	1.000000e+00	1.000000e+00	1.000000e+00	1.000000e+00	9.887898e-01	9.875611e-01	9.884623e-01	9.897666e-01	9.932870e-01	9.975595e-01	1.001686e+00	1.005555e+00	1.009822e+00	1.015188e+00	1.021849e+00	1.029589e+00	1.037278e+00	1.043181e+00	1.045724e+00	1.045691e+00	1.044951e+00	1.042300e+00	1.036551