# vtk DataFile Version 3.0
vtk output
ASCII
DATASET STRUCTURED_GRID
DIMENSIONS 101 101 1
POINTS 10201 double
0.000000e+00	0.000000e+00	0.0	1.000000e-02	0.000000e+00	0.0	2.000000e-02	0.000000e+00	0.0	3.000000e-02	0.000000e+00	0.0	4.000000e-02	0.000000e+00	0.0	5.000000e-02	0.000000e+00	0.0	6.000000e-02	0.000000e+00	0.0	7.000000e-02	0.000000e+00	0.0	8.000000e-02	0.000000e+00	0.0	9.000000e-02	0.000000e+00	0.0	1.000000e-01	0.000000e+00	0.0	1.100000e-01	0.000000e+00	0.0	1.200000e-01	0.000000e+00	0.0	1.300000e-01	0.000000e+00	0.0	1.400000e-01	0.000000e+00	0.0	1.500000e-01	0.000000e+00	0.0	1.600000e-01	0.000000e+00	0.0	1.700000e-01	0.000000e+00	0.0	1.800000e-01	0.000000e+00	0.0	1.900000e-01	0.000000e+00	0.0	2.000000e-01	0.000000e+00	0.0	2.100000e-01	0.000000e+00	0.0	2.200000e-01	0.000000e+00	0.0	2.300000e-01	0.000000e+00	0.0	2.400000e-01	0.000000e+00	0.0	2.500000e-01	0.000000e+00	0.0	2.600000e-01	0.000000e+00	0.0	2.700000e-01	0.000000e+00	0.0	2.800000e-01	0.000000e+00	0.0	2.900000e-01	0.000000e+00	0.0	3.000000e-01	0.000000e+00	0.0	3.100000e-01	0.000000e+00	0.0	3.200000e-01	0.000000e+00	0.0	3.300000e-01	0.000000e+00	0.0	3.400000e-01	0.000000e+00	0.0	3.500000e-01	0.000000e+00	0.0	3.600000e-01	0.000000e+00	0.0	3.700000e-01	0.000000e+00	0.0	3.800000e-01	0.000000e+00	0.0	3.900000e-01	0.000000e+00	0.0	4.000000e-01	0.000000e+00	0.0	4.100000e-01	0.000000e+00	0.0	4.200000e-01	0.000000e+00	0.0	4.300000e-01	0.000000e+00	0.0	4.400000e-01	0.000000e+00	0.0	4.500000e-01	0.000000e+00	0.0	4.600000e-01	0.000000e+00	0.0	4.700000e-01	0.000000e+00	0.0	4.800000e-01	0.000000e+00	0.0	4.900000e-01	0.000000e+00	0.0	5.000000e-01	0.000000e+00	0.0	5.100000e-01	0.000000e+00	0.0	5.200000e-01	0.000000e+00	0.0	5.300000e-01	0.000000e+00	0.0	5.400000e-01	0.000000e+00	0.0	5.500000e-01	0.000000e+00	0.0	5.600000e-01	0.000000e+00	0.0	5.700000e-01	0.000000e+00	0.0	5.800000e-01	0.000000e+00	0.0	5.900000e-01	0.000000e+00	0.0	6.000000e-01	0.000000e+00	0.0	6.100000e-01	0.000000e+00	0.0	6.200000e-01	0.000000e+00	0.0	6.300000e-01	0.000000e+00	0.0	6.400000e-01	0.000000e+00	0.0	6.500000e-01	0.000000e+00	0.0	6.600000e-01	0.000000e+00	0.0	6.700000e-01	0.000000e+00	0.0	6.800000e-01	0.000000e+00	0.0	6.900000e-01	0.000000e+00	0.0	7.000000e-01	0.000000e+00	0.0	7.100000e-01	0.000000e+00	0.0	7.200000e-01	0.000000e+00	0.0	7.300000e-01	0.000000e+00	0.0	7.400000e-01	0.000000e+00	0.0	7.500000e-01	0.000000e+00	0.0	7.600000e-01	0.000000e+00	0.0	7.700000e-01	0.000000e+00	0.0	7.800000e-01	0.000000e+00	0.0	7.900000e-01	0.000000e+00	0.0	8.000000e-01	0.000000e+00	0.0	8.100000e-01	0.000000e+00	0.0	8.200000e-01	0.000000e+00	0.0	8.300000e-01	0.000000e+00	0.0	8.400000e-01	0.000000e+00	0.0	8.500000e-01	0.000000e+00	0.0	8.600000e-01	0.000000e+00	0.0	8.700000e-01	0.000000e+00	0.0	8.800000e-01	0.000000e+00	0.0	8.900000e-01	0.000000e+00	0.0	9.000000e-01	0.000000e+00	0.0	9.100000e-01	0.000000e+00	0.0	9.200000e-01	0.000000e+00	0.0	9.300000e-01	0.000000e+00	0.0	9.400000e-01	0.000000e+00	0.0	9.500000e-01	0.000000e+00	0.0	9.600000e-01	0.000000e+00	0.0	9.700000e-01	0.000000e+00	0.0	9.800000e-01	0.000000e+00	0.0	9.900000e-01	0.000000e+00	0.0	1.000000e+00	0.000000e+00	0.0	0.000000e+00	1.000000e-02	0.0	1.000000e-02	1.000000e-02	0.0	2.000000e-02	1.000000e-02	0.0	3.000000e-02	1.000000e-02	0.0	4.000000e-02	1.000000e-02	0.0	5.000000e-02	1.000000e-02	0.0	6.000000e-02	1.000000e-02	0.0	7.000000e-02	1.000000e-02	0.0	8.000000e-02	1.000000e-02	0.0	9.000000e-02	1.000000e-02	0.0	1.000000e-01	1.000000e-02	0.0	1.100000e-01	1.000000e-02	0.0	1.200000e-01	1.000000e-02	0.0	1.300000e-01	1.000000e-02	0.0	1.400000e-01	1.000000e-02	0.0	1.500000e-01	1.000000e-02	0.0	1.600000e-01	1.000000e-02	0.0	1.700000e-01	1.000000e-02	0.0	1.800000e-01	1.000000e-02	0.0	1.900000e-01	1.000000e-02	0.0	2.000000e-01	1.000000e-02	0.0	2.100000e-01	1.000000e-02	0.0	2.200000e-01	1.000000e-02	0.0	2.300000e-01	1.000000e-02	0.0	2.400000e-01	1.000000e-02	0.0	2.500000e-01	1.000000e-02	0.0	2.600000e-01	1.000000e-02	0.0	2.700000e-01	1.000000e-02	0.0	2.800000e-01	1.000000e-02	0.0	2.900000e-01	1.000000e-02	0.0	3.000000e-01	1.000000e-02	0.0	3.100000e-01	1.000000e-02	0.0	3.200000e-01	1.000000e-02	0.0	3.300000e-01	1.000000e-02	0.0	3.400000e-01	1.000000e-02	0.0	3.500000e-01	1.000000e-02	0.0	3.600000e-01	1.000000e-02	0.0	3.700000e-01	1.000000e-02	0.0	3.800000e-01	1.000000e-02	0.0	3.900000e-01	1.000000e-02	0.0	4.000000e-01	1.000000e-02	0.0	4.100000e-01	1.000000e-02	0.0	4.200000e-01	1.000000e-02	0.0	4.300000e-01	1.000000e-02	0.0	4.400000e-01	1.000000e-02	0.0	4.500000e-01	1.000000e-02	0.0	4.600000e-01	1.000000e-02	0.0	4.700000e-01	1.000000e-02	0.0	4.800000e-01	1.000000e-02	0.0	4.900000e-01	1.000000e-02	0.0	5.000000e-01	1.000000e-02	0.0	5.100000e-01	1.000000e-02	0.0	5.200000e-01	1.000000e-02	0.0	5.300000e-01	1.000000e-02	0.0	5.400000e-01	1.000000e-02	0.0	5.500000e-01	1.000000e-02	0.0	5.600000e-01	1.000000e-02	0.0	5.700000e-01	1.000000e-02	0.0	5.800000e-01	1.000000e-02	0.0	5.900000e-01	1.000000e-02	0.0	6.000000e-01	1.000000e-02	0.0	6.100000e-01	1.000000e-02	0.0	6.200000e-01	1.000000e-02	0.0	6.300000e-01	1.000000e-02	0.0	6.400000e-01	1.000000e-02	0.0	6.500000e-01	1.000000e-02	0.0	6.600000e-01	1.000000e-02	0.0	6.700000e-01	1.000000e-02	0.0	6.800000e-01	1.000000e-02	0.0	6.900000e-01	1.000000e-02	0.0	7.000000e-01	1.000000e-02	0.0	7.100000e-01	1.000000e-02	0.0	7.200000e-01	1.000000e-02	0.0	7.300000e-01	1.000000e-02	0.0	7.400000e-01	1.000000e-02	0.0	7.500000e-01	1.000000e-02	0.0	7.600000e-01	1.000000e-02	0.0	7.700000e-01	1.000000e-02	0.0	7.800000e-01	1.000000e-02	0.0	7.900000e-01	1.000000e-02	0.0	8.000000e-01	1.000000e-02	0.0	8.100000e-01	1.000000e-02	0.0	8.200000e-01	1.000000e-02	0.0	8.300000e-01	1.000000e-02	0.0	8.400000e-01	1.000000e-02	0.0	8.500000e-01	1.000000e-02	0.0	8.600000e-01	1.000000e-02	0.0	8.700000e-01	1.000000e-02	0.0	8.800000e-01	1.000000e-02	0.0	8.900000e-01	1.000000e-02	0.0	9.000000e-01	1.000000e-02	0.0	9.100000e-01	1.000000e-02	0.0	9.200000e-01	1.000000e-02	0.0	9.300000e-01	1.000000e-02	0.0	9.400000e-01	1.000000e-02	0.0	9.500000e-01	1.000000e-02	0.0	9.600000e-01	1.000000e-02	0.0	9.700000e-01	1.000000e-02	0.0	9.800000e-01	1.000000e-02	0.0	9.900000e-01	1.000000e-02	0.0	1.000000e+00	1.000000e-02	0.0	0.000000e+00	2.000000e-02	0.0	1.000000e-02	2.000000e-02	0.0	2.000000e-02	2.000000e-02	0.0	3.000000e-02	2.000000e-02	0.0	4.000000e-02	2.000000e-02	0.0	5.000000e-02	2.000000e-02	0.0	6.000000e-02	2.000000e-02	0.0	7.000000e-02	2.000000e-02	0.0	8.000000e-02	2.000000e-02	0.0	9.000000e-02	2.000000e-02	0.0	1.000000e-01	2.000000e-02	0.0	1.100000e-01	2.000000e-02	0.0	1.200000e-01	2.000000e-02	0.0	1.300000e-01	2.000000e-02	0.0	1.400000e-01	2.000000e-02	0.0	1.500000e-01	2.000000e-02	0.0	1.600000e-01	2.000000e-02	0.0	1.700000e-01	2.000000e-02	0.0	1.800000e-01	2.000000e-02	0.0	1.900000e-01	2.000000e-02	0.0	2.000000e-01	2.000000e-02	0.0	2.100000e-01	2.000000e-02	0.0	2.200000e-01	2.000000e-02	0.0	2.300000e-01	2.000000e-02	0.0	2.400000e-01	2.000000e-02	0.0	2.500000e-01	2.000000e-02	0.0	2.600000e-01	2.000000e-02	0.0	2.700000e-01	2.000000e-02	0.0	2.800000e-01	2.000000e-02	0.0	2.900000e-01	2.000000e-02	0.0	3.000000e-01	2.000000e-02	0.0	3.100000e-01	2.000000e-02	0.0	3.200000e-01	2.000000e-02	0.0	3.300000e-01	2.000000e-02	0.0	3.400000e-01	2.000000e-02	0.0	3.500000e-01	2.000000e-02	0.0	3.600000e-01	2.000000e-02	0.0	3.700000e-01	2.000000e-02	0.0	3.800000e-01	2.000000e-02	0.0	3.900000e-01	2.000000e-02	0.0	4.000000e-01	2.000000e-02	0.0	4.100000e-01	2.000000e-02	0.0	4.200000e-01	2.000000e-02	0.0	4.300000e-01	2.000000e-02	0.0	4.400000e-01	2.000000e-02	0.0	4.500000e-01	2.000000e-02	0.0	4.600000e-01	2.000000e-02	0.0	4.700000e-01	2.000000e-02	0.0	4.800000e-01	2.000000e-02	0.0	4.900000e-01	2.000000e-02	0.0	5.000000e-01	2.000000e-02	0.0	5.100000e-01	2.000000e-02	0.0	5.200000e-01	2.000000e-02	0.0	5.300000e-01	2.000000e-02	0.0	5.400000e-01	2.000000e-02	0.0	5.500000e-01	2.000000e-02	0.0	5.600000e-01	2.000000e-02	0.0	5.700000e-01	2.000000e-02	0.0	5.800000e-01	2.000000e-02	0.0	5.900000e-01	2.000000e-02	0.0	6.000000e-01	2.000000e-02	0.0	6.100000e-01	2.000000e-02	0.0	6.200000e-01	2.000000e-02	0.0	6.300000e-01	2.000000e-02	0.0	6.400000e-01	2.000000e-02	0.0	6.500000e-01	2.000000e-02	0.0	6.600000e-01	2.000000e-02	0.0	6.700000e-01	2.000000e-02	0.0	6.800000e-01	2.000000e-02	0.0	6.900000e-01	2.000000e-02	0.0	7.000000e-01	2.000000e-02	0.0	7.100000e-01	2.000000e-02	0.0	7.200000e-01	2.000000e-02	0.0	7.300000e-01	2.000000e-02	0.0	7.400000e-01	2.000000e-02	0.0	7.500000e-01	2.000000e-02	0.0	7.600000e-01	2.000000e-02	0.0	7.700000e-01	2.000000e-02	0.0	7.800000e-01	2.000000e-02	0.0	7.900000e-01	2.000000e-02	0.0	8.000000e-01	2.000000e-02	0.0	8.100000e-01	2.000000e-02	0.0	8.200000e-01	2.000000e-02	0.0	8.300000e-01	2.000000e-02	0.0	8.400000e-01	2.000000e-02	0.0	8.500000e-01	2.000000e-02	0.0	8.600000e-01	2.000000e-02	0.0	8.700000e-01	2.000000e-02	0.0	8.800000e-01	2.000000e-02	0.0	8.900000e-01	2.000000e-02	0.0	9.000000e-01	2.000000e-02	0.0	9.100000e-01	2.000000e-02	0.0	9.200000e-01	2.000000e-02	0.0	9.300000e-01	2.000000e-02	0.0	9.400000e-01	2.000000e-02	0.0	9.500000e-01	2.000000e-02	0.0	9.600000e-01	2.000000e-02	0.0	9.700000e-01	2.000000e-02	0.0	9.800000e-01	2.000000e-02	0.0	9.900000e-01	2.000000e-02	0.0	1.000000e+00	2.000000e-02	0.0	0.000000e+00	3.000000e-02	0.0	1.000000e-02	3.000000e-02	0.0	2.000000e-02	3.000000e-02	0.0	3.000000e-02	3.000000e-02	0.0	4.000000e-02	3.000000e-02	0.0	5.000000e-02	3.000000e-02	0.0	6.000000e-02	3.000000e-02	0.0	7.000000e-02	3.000000e-02	0.0	8.000000e-02	3.000000e-02	0.0	9.000000e-02	3.000000e-02	0.0	1.000000e-01	3.000000e-02	0.0	1.100000e-01	3.000000e-02	0.0	1.200000e-01	3.000000e-02	0.0	1.300000e-01	3.000000e-02	0.0	1.400000e-01	3.000000e-02	0.0	1.500000e-01	3.000000e-02	0.0	1.600000e-01	3.000000e-02	0.0	1.700000e-01	3.000000e-02	0.0	1.800000e-01	3.000000e-02	0.0	1.900000e-01	3.000000e-02	0.0	2.000000e-01	3.000000e-02	0.0	2.100000e-01	3.000000e-02	0.0	2.200000e-01	3.000000e-02	0.0	2.300000e-01	3.000000e-02	0.0	2.400000e-01	3.000000e-02	0.0	2.500000e-01	3.000000e-02	0.0	2.600000e-01	3.000000
[...]
POINT_DATA 10201

SCALARS Height double 1
LOOKUP_TABLE default
9.974040e-01	9.974114e-01	9.974202e-01	9.974068e-01	9.973992e-01	9.973865e-01	9.973672e-01	9.973424e-01	9.973171e-01	9.972889e-01	9.972564e-01	9.972185e-01	9.971737e-01	9.971233e-01	9.970681e-01	9.970080e-01	9.969430e-01	9.968738e-01	9.967963e-01	9.967112e-01	9.966144e-01	9.964976e-01	9.963632e-01	9.962091e-01	9.960338e-01	9.958352e-01	9.956096e-01	9.953525e-01	9.950540e-01	9.946882e-01	9.942049e-01	9.935250e-01	9.925382e-01	9.911392e-01	9.893191e-01	9.872618e-01	9.853534e-01	9.839784e-01	9.832390e-01	9.830464e-01	9.833860e-01	9.850258e-01	9.884233e-01	9.934627e-01	9.997288e-01	1.006706e+00	1.013824e+00	1.020345e+00	1.025424e+00	1.028544e+00	1.029755e+00	1.029472e+00	1.026278e+00	1.018636e+00	1.009251e+00	1.002488e+00	9.992672e-01	9.981065e-01	9.977465e-01	9.976367e-01	9.975887e-01	9.975428e-01	9.974705e-01	9.973552e-01	9.971952e-01	9.969986e-01	9.967736e-01	9.965225e-01	9.962391e-01	9.959016e-01	9.954642e-01	9.948499e-01	9.939459e-01	9.926312e-01	9.908676e-01	9.888077e-01	9.868235e-01	9.853229e-01	9.844639e-01	9.841819e-01	9.843844e-01	9.857348e-01	9.888409e-01	9.936872e-01	9.999139e-01	1.006989e+00	1.014312e+00	1.021131e+00	1.026564e+00	1.030004e+00	1.031465e+00	1.031379e+00	1.028570e+00	1.021254e+00	1.011822e+00	1.004879e+00	1.001598e+00	1.000454e+00	1.000119e+00	1.000032e+00	1.000014e+00	9.974095e-01	9.974107e-01	9.974182e-01	9.974062e-01	9.973973e-01	9.973833e-01	9.973640e-01	9.973394e-01	9.973131e-01	9.972832e-01	9.972485e-01	9.972083e-01	9.971616e-01	9.971095e-01	9.970522e-01	9.969897e-01	9.969218e-01	9.968498e-01	9.967694e-01	9.966803e-01	9.965815e-01	9.964652e-01	9.963326e-01	9.961812e-01	9.960080e-01	9.958096e-01	9.955850e-01	9.953273e-01	9.950265e-01	9.946572e-01	9.941694e-01	9.934815e-01	9.924858e-01	9.910782e-01	9.892495e-01	9.871790e-01	9.852243e-01	9.837841e-01	9.831322e-01	9.830532e-01	9.834225e-01	9.850257e-01	9.884182e-01	9.934788e-01	9.997906e-01	1.006805e+00	1.013944e+00	1.020530e+00	1.025825e+00	1.028977e+00	1.029767e+00	1.029408e+00	1.026437e+00	1.019045e+00	1.009318e+00	1.002120e+00	9.989285e-01	9.979435e-01	9.976843e-01	9.976086e-01	9.975695e-01	9.975259e-01	9.974546e-01	9.973398e-01	9.971788e-01	9.969800e-01	9.967525e-01	9.964987e-01	9.962116e-01	9.958697e-01	9.954264e-01	9.948036e-01	9.938900e-01	9.925684e-01	9.907975e-01	9.887259e-01	9.867014e-01	9.851302e-01	9.843250e-01	9.841770e-01	9.844126e-01	9.857402e-01	9.888345e-01	9.937046e-01	9.999740e-01	1.007089e+00	1.014437e+00	1.021312e+00	1.026947e+00	1.030485e+00	1.031533e+00	1.031309e+00	1.028722e+00	1.021717e+00	1.011954e+00	1.004521e+00	1.001253e+00	1.000296e+00	1.000067e+00	1.000016e+00	1.000006e+00	9.974198e-01	9.974186e-01	9.974296e-01	9.974159e-01	9.974063e-01	9.973917e-01	9.973719e-01	9.973465e-01	9.973194e-01	9.972885e-01	9.972526e-01	9.972119e-01	9.971651e-01	9.971129e-01	9.970550e-01	9.969915e-01	9.969236e-01	9.968525e-01	9.967704e-01	9.966823e-01	9.965833e-01	9.964646e-01	9.963295e-01	9.961765e-01	9.960028e-01	9.958043e-01	9.955778e-01	9.953196e-01	9.950141e-01	9.946362e-01	9.941335e-01	9.934232e-01	9.924045e-01	9.909979e-01	9.892100e-01	9.872002e-01	9.852763e-01	9.839081e-01	9.834153e-01	9.833779e-01	9.837855e-01	9.853805e-01	9.887002e-01	9.937022e-01	9.998825e-01	1.006749e+00	1.013766e+00	1.020376e+00	1.025733e+00	1.028572e+00	1.029144e+00	1.028756e+00	1.026032e+00	1.019163e+00	1.009745e+00	1.002373e+00	9.989861e-01	9.979479e-01	9.976819e-01	9.976043e-01	9.975643e-01	9.975205e-01	9.974507e-01	9.973388e-01	9.971806e-01	9.969828e-01	9.967546e-01	9.964983e-01	9.962055e-01	9.958526e-01	9.953929e-01	9.947467e-01	9.938084e-01	9.924828e-01	9.907474e-01	9.887373e-01	9.867450e-01	9.852259e-01	9.845766e-01	9.844865e-01	9.847619e-01	9.861024e-01	9.891363e-01	9.939573e-01	1.000101e+00	1.007056e+00	1.014258e+00	1.021127e+00	1.026847e+00	1.030119e+00	1.030885e+00	1.030632e+00	1.028275e+00	1.021792e+00	1.012396e+00	1.004774e+00	1.001276e+00	1.000267e+00	1.000051e+00	1.000011e+00	1.000003e+00	9.974065e-01	9.974063e-01	9.974159e-01	9.974030e-01	9.973932e-01	9.973793e-01	9.973610e-01	9.973372e-01	9.973108e-01	9.972803e-01	9.972446e-01	9.972041e-01	9.971578e-01	9.971059e-01	9.970477e-01	9.969836e-01	9.969143e-01	9.968410e-01	9.967591e-01	9.966687e-01	9.965671e-01	9.964455e-01	9.963080e-01	9.961529e-01	9.959764e-01	9.957745e-01	9.955461e-01	9.952835e-01	9.949698e-01	9.945741e-01	9.940425e-01	9.932895e-01	9.922208e-01	9.907841e-01	9.890016e-01	9.870155e-01	9.851737e-01	9.840342e-01	9.836958e-01	9.836976e-01	9.841962e-01	9.859020e-01	9.892539e-01	9.941802e-01	1.000237e+00	1.006948e+00	1.013895e+00	1.020568e+00	1.025748e+00	1.028104e+00	1.028492e+00	1.028048e+00	1.025370e+00	1.018855e+00	1.009904e+00	1.002712e+00	9.991949e-01	9.980134e-01	9.976878e-01	9.975907e-01	9.975432e-01	9.974960e-01	9.974252e-01	9.973143e-01	9.971573e-01	9.969593e-01	9.967288e-01	9.964675e-01	9.961650e-01	9.957935e-01	9.953053e-01	9.946181e-01	9.936319e-01	9.922698e-01	9.905368e-01	9.885468e-01	9.866115e-01	9.852939e-01	9.848437e-01	9.847913e-01	9.851526e-01	9.866180e-01	9.897215e-01	9.944839e-01	1.000511e+00	1.007299e+00	1.014398e+00	1.021321e+00	1.026912e+00	1.029681e+00	1.030231e+00	1.029924e+00	1.027610e+00	1.021490e+00	1.012576e+00	1.005109e+00	1.001460e+00	1.000324e+00	1.000062e+00	1.000012e+00	1.000003e+00	9.973990e-01	9.973974e-01	9.974063e-01	9.973932e-01	9.973825e-01	9.973684e-01	9.973505e-01	9.973266e-01	9.972993e-01	9.972678e-01	9.972313e-01	9.971900e-01	9.971432e-01	9.970907e-01	9.970321e-01	9.969677e-01	9.968978e-01	9.968231e-01	9.967404e-01	9.966480e-01	9.965436e-01	9.964192e-01	9.962786e-01	9.961198e-01	9.959396e-01	9.957344e-01	9.955026e-01	9.952331e-01	9.949069e-01	9.944842e-01	9.939071e-01	9.930969e-01	9.919698e-01	9.904871e-01	9.886978e-01	9.867629e-01	9.851355e-01	9.842944e-01	9.840773e-01	9.841343e-01	9.847512e-01	9.865946e-01	9.900126e-01	9.948570e-01	1.000729e+00	1.007254e+00	1.014171e+00	1.020787e+00	1.025517e+00	1.027422e+00	1.027659e+00	1.027165e+00	1.024482e+00	1.018301e+00	1.010004e+00	1.003169e+00	9.995342e-01	9.981516e-01	9.977179e-01	9.975810e-01	9.975190e-01	9.974658e-01	9.973933e-01	9.972829e-01	9.971269e-01	9.969289e-01	9.966957e-01	9.964275e-01	9.961108e-01	9.957139e-01	9.951815e-01	9.944397e-01	9.933959e-01	9.919868e-01	9.902333e-01	9.882682e-01	9.865119e-01	9.855056e-01	9.852037e-01	9.852118e-01	9.856837e-01	9.873046e-01	9.905098e-01	9.952250e-01	1.001072e+00	1.007648e+00	1.014688e+00	1.021574e+00	1.026754e+00	1.029032e+00	1.029393e+00	1.029038e+00	1.026717e+00	1.020932e+00	1.012675e+00	1.005564e+00	1.001776e+00	1.000436e+00	1.000088e+00	1.000016e+00	1.000004e+00	9.973862e-01	9.973834e-01	9.973917e-01	9.973793e-01	9.973684e-01	9.973541e-01	9.973364e-01	9.973124e-01	9.972843e-01	9.972525e-01	9.972155e-01	9.971731e-01	9.971249e-01	9.970710e-01	9.970117e-01	9.969469e-01	9.968763e-01	9.968001e-01	9.967158e-01	9.966209e-01	9.965134e-01	9.963856e-01	9.962410e-01	9.960781e-01	9.958936e-01	9.956850e-01	9.954487e-01	9.951696e-01	9.948220e-01	9.943633e-01	9.937236e-01	9.928318e-01	9.916323e-01	9.901030e-01	9.882986e-01	9.864926e-01	9.851864e-01	9.846273e-01	9.845430e-01	9.846691e-01	9.854541e-01	9.874781e-01	9.909703e-01	9.957083e-01	1.001360e+00	1.007727e+00	1.014586e+00	1.020952e+00	1.025090e+00	1.026549e+00	1.026696e+00	1.026103e+00	1.023365e+00	1.017533e+00	1.010022e+00	1.003705e+00	9.999966e-01	9.983590e-01	9.977695e-01	9.975722e-01	9.974888e-01	9.974270e-01	9.973516e-01	9.972413e-01	9.970859e-01	9.968874e-01	9.966507e-01	9.963729e-01	9.960369e-01	9.956043e-01	9.950157e-01	9.941950e-01	9.930744e-01	9.916107e-01	9.898230e-01	9.879449e-01	9.864831e-01	9.857956e-01	9.856489e-01	9.857232e-01	9.863594e-01	9.881857e-01	9.915059e-01	9.961478e-01	1.001769e+00	1.008161e+00	1.015137e+00	1.021807e+00	1.026408e+00	1.028198e+00	1.028420e+00	1.027987e+00	1.025608e+00	1.020148e+00	1.012676e+00	1.006104e+00	1.002227e+00	1.000623e+00	1.000138e+00	1.000026e+00	1.000007e+00	9.973667e-01	9.973643e-01	9.973719e-01	9.973610e-01	9.973505e-01	9.973364e-01	9.973188e-01	9.972950e-01	9.972665e-01	9.972344e-01	9.971968e-01	9.971530e-01	9.971032e-01	9.970476e-01	9.969871e-01	9.969209e-01	9.968487e-01	9.967702e-01	9.966836e-01	9.965859e-01	9.964747e-01	9.963438e-01	9.961953e-01	9.960272e-01	9.958373e-01	9.956248e-01	9.953803e-01	9.950866e-01	9.947101e-01	9.941953e-01	9.934780e-01	9.924928e-01	9.911998e-01	9.896071e-01	9.878351e-01	9.862630e-01	9.853548e-01	9.850696e-01	9.850679e-01	9.853194e-01	9.863195e-01	9.885520e-01	9.921090e-01	9.967146e-01	1.002143e+00	1.008368e+00	1.015064e+00	1.020977e+00	1.024493e+00	1.025528e+00	1.025588e+00	1.024866e+00	1.022058e+00	1.016627e+00	1.009989e+00	1.004290e+00	1.000563e+00	9.986404e-01	9.978473e-01	9.975651e-01	9.974522e-01	9.973789e-01	9.972988e-01	9.971882e-01	9.970340e-01	9.968347e-01	9.965930e-01	9.963021e-01	9.959386e-01	9.954590e-01	9.947989e-01	9.938875e-01	9.926676e-01	9.911190e-01	9.893248e-01	9.876404e-01	9.865745e-01	9.861890e-01	9.861625e-01	9.863415e-01	9.872014e-01	9.892622e-01	9.926918e-01	9.972319e-01	1.002623e+00	1.008844e+00	1.015664e+00	1.021924e+00	1.025881e+00	1.027197e+00	1.027319e+00	1.026767e+00	1.024312e+00	1.019219e+00	1.012617e+00	1.006694e+00	1.002790e+00	1.000887e+00	1.000214e+00	1.000043e+00	1.000011e+00	9.973415e-01	9.973399e-01	9.973464e-01	9.973372e-01	9.973266e-01	9.973124e-01	9.972950e-01	9.972719e-01	9.972434e-01	9.972113e-01	9.971735e-01	9.971291e-01	9.970787e-01	9.970226e-01	9.969611e-01	9.968930e-01	9.968180e-01	9.967364e-01	9.966468e-01	9.965451e-01	9.964297e-01	9.962948e-01	9.961410e-01	9.959664e-01	9.957700e-01	9.955501e-01	9.952957e-01	9.949779e-01	9.945586e-01	9.939745e-01	9.931612e-01	9.920655e-01	9.906676e-01	9.890183e-01	9.873586e-01	9.861443e-01	9.856421e-01	9.855856e-01	9.856561e-01	9.861009e-01	9.873699e-01	9.898120e-01	9.934020e-01	9.978717e-01	1.003100e+00	1.009132e+00	1.015514e+00	1.020808e+00	1.023652e+00	1.024361e+00	1.024334e+00	1.023459e+00	1.020610e+00	1.015657e+00	1.009943e+00	1.004899e+00	1.001206e+00	9.989931e-01	9.979586e-01	9.975645e-01	9.974123e-01	9.973234e-01	9.972367e-01	9.971241e-01	9.969701e-01	9.967695e-01	9.965196e-01	9.962096e-01	9.958091e-01	9.952670e-01	9.945172e-01	9.934955e-01	9.921585e-01	9.905251e-01	9.887941e-01	9.874251e-01	9.867941e-01	9.866806e-01	9.867273e-01	9.870923e-01	9.882311e-01	9.905364e-01	9.940392e-01	9.984666e-01	1.003653e+00	1.009670e+00	1.016191e+00	1.021865e+00	1.025132e+00	1.026050e+00	1.026078e+00	1.025386e+00	1.022873e+00	1.018208e+00	1.012524e+00	1.007302e+00	1.003438e+00	1.001225e+00	1.000320e+00	1.000067e+00	1.000018e+00	9.973158e-01	9.973138e-01	9.973193e-01	9.973108e-01	9.972993e-01	9.972843e-01	9.972665e-01	9.972434e-01	9.972141e-01	9.971810e-01	9.971425e-01	9.970975e-01	9.970469e-01	9.969903e-01	9.969274e-01	9.968582e-01	9.967816e-01	9.966965e-01	9.966027e-01	9.964999e-01	9.963792e-01	9.962394e-01	9.960787e-01	9.958968e-01	9.956936e-01	9.954637e-01	9.951889e-01	9.948398e-01	9.943614e-01	9.936897e-01	9.927617e-01	9.915364e-01	9.900253e-01	9.883592e-01	9.869358e-01	9.862288e-01	9.860736e-01	9.861142e-01	9.863393e-01	9.870535e-01	9.886230e-01	9.912484e-01	9.948309e-01	9.991715e-01	1.004217e+00	1.009961e+00	1.015854e+00	1.020427e+00	1.022612e+00	1.023045e+00	1.022932e+00	1.021893e+00	1.019065e+00	1.014684e+00	1.009899e+00	1.005508e+00	1.001890e+00	9.993995e-01	9.980962e-01	9.975705e-01	9.973684e-01	9.972629e-01	9.971691e-01	9.970524e-01	9.968965e-01	9.966922e-01	9.964306e-01	9.960926e-01	9.956418e-01	9.950189e-01	9.941570e-01	9.930002e-01	9.915297e-01	9.898343e-01	9.882907e-01	9.874161e-01	9.871670e-01	9.871960e-01	9.873761e-01	9.880075e-01	9.894688e-01	9.919984e-01	9.955282e-01	9.998431e-01	1.004852e+00	1.010580e+00	1.016624e+00	1.021575e+00	1.024160e+00	1.024752e+00	1.024698e+00	1.023860e+00	1.021343e+00	1.017190e+00	1.012431e+00	1.007908e+00	1.004139e+00	1.001628e+00	1.000457e+00	1.000099e+00	1.000027e+00	9.972870e-01	9.972842e-01	9.972884e-01	9.972803e-01	9.972678e-01	9.972525e-01	9.972344e-01	9.972113e-01	9.971810e-01	9.971463e-01	9.971063e-01	9.970603e-01	9.970088e-01	9.969514e-01	9.968868e-01	9.968144e-01	9.967346e-01	9.966468e-01	9.965499e-01	9.964423e-01	9.963177e-01	9.961721e-01	9.960044e-01	9.958161e-01	9.956067e-01	9.953606e-01	9.950593e-01	9.946639e-01	9.941092e-01	9.933285e-01	9.922640e-01	9.908880e-01	9.892578e-01	9.876912e-01	9.867438e-01	9.864888e-01	9.865274e-01	9.866927e-01	9.871653e-01	9.882066e-01	9.900766e-01	9.928427e-01	9.963838e-01	1.000597e+00	1.005453e+00	1.010791e+00	1.015987e+00	1.019789e+00	1.021369e+00	1.021592e+00	1.021381e+00	1.020204e+00	1.017495e+00	1.013772e+00	1.009879e+00	1.006103e+00	1.002587e+00	9.998377e-01	9.982528e-01	9.975773e-01	9.973188e-01	9.971919e-01	9.970906e-01	9.969724e-01	9.968139e-01	9.966025e-01	9.963237e-01	9.959483e-01	9.954282e-01	9.947001e-01	9.937002e-01	9.923803e-01	9.907641e-01	9.891134e-01	9.879776e-01	9.876087e-01	9.876134e-01	9.877450e-01	9.881590e-01	9.891237e-01	9.909167e-01	9.936304e-01	9.971468e-01	1.001344e+00	1.006178e+00	1.011516e+00	1.016867e+00	1.021050e+00	1.022975e+00	1.023322e+00	1.023181e+00	1.022214e+00	1.019781e+00	1.016229e+00	1.012360e+00	1.008503e+00	1.004862e+00	1.002077e+00	1.000621e+00	1.000139e+00	1.000038e+00	9.972539e-01	9.972498e-01	9.972526e-01	9.972446e-01	9.972313e-01	9.972155e-01	9.971968e-01	9.971735e-01	9.971425e-01	9.971063e-01	9.970654e-01	9.970186e-01	9.969660e-01	9.969067e-01	9.968402e-01	9.967652e-01	9.966823e-01	9.965911e-01	9.964894e-01	9.963752e-01	9.962441e-01	9.960913e-01	9.959168e-01	9.957218e-01	9.955000e-01	9.952355e-01	9.948972e-01	9.944386e-01	9.937853e-01	9.928704e-01	9.916363e-01	9.900821e-01	9.884098e-01	9.872088e-01	9.868486e-01	9.868453e-01	9.869958e-01	9.873882e-01	9.881791e-01	9.895757e-01	9.917174e-01	9.945757e-01	9.980523e-01	1.002121e+00	1.006732e+00	1.011546e+00	1.015854e+00	1.018829e+00	1.019929e+00	1.019999e+00	1.019695e+00	1.018432e+00	1.015984e+00	1.012977e+00	1.009910e+00	1.006681e+00	1.003272e+00	1.000287e+00	9.984182e-01	9.975825e-01	9.972612e-01	9.971105e-01	9.969982e-01	9.968747e-01	9.967128e-01	9.964918e-01	9.961868e-01	9.957590e-01	9.951497e-01	9.942900e-01	9.931156e-01	9.915986e-01	9.898765e-01	9.885108e-01	9.880002e-01	9.879466e-01	9.880621e-01	9.884013e-01	9.891273e-01	9.904605e-01	9.925610e-01	9.954102e-01	9.988895e-01	1.002951e+00	1.007560e+00	1.012405e+00	1.016862e+00	1.020160e+00	1.021592e+00	1.021755e+00	1.021534e+00	1.020489e+00	1.018265e+00	1.015380e+00	1.012343e+00	1.009079e+00	1.005581e+00	1.002551e+00	1.000804e+00	1.000187e+00	1.000053e+00	9.972154e-01	9.972099e-01	9.972118e-01	9.972041e-01	9.971900e-01	9.971731e-01	9.971530e-01	9.971291e-01	9.970975e-01	9.970603e-01	9.970186e-01	9.969710e-01	9.969173e-01	9.968567e-01	9.967879e-01	9.967112e-01	9.966254e-01	9.965304e-01	9.964225e-01	9.963011e-01	9.961612e-01	9.960000e-01	9.958192e-01	9.956130e-01	9.953754e-01	9.950825e-01	9.946939e-01	9.941470e-01	9.933662e-01	9.922759e-01	9.908213e-01	9.890988e-01	9.876751e-01	9.871284e-01	9.870813e-01	9.872078e-01	9.875652e-01	9.882574e-01	9.894153e-01	9.911622e-01	9.935232e-01	9.964273e-01	9.998217e-01	1.003710e+00	1.007971e+00	1.012116e+00	1.015454e+00	1.017547e+00	1.018302e+00	1.018276e+00	1.017887e+00	1.016649e+00	1.014608e+00	1.012340e+00	1.009999e+00	1.007234e+00	1.003921e+00	1.000725e+00	9.985858e-01	9.975879e-01	9.971988e-01	9.970209e-01	9.968958e-01	9.967646e-01	9.965944e-01	9.963560e-01	9.960123e-01	9.955104e-01	9.947816e-01	9.937509e-01	9.923483e-01	9.906202e-01	9.890553e-01	9.883151e-01	9.881979e-01	9.882983e-01	9.885995e-01	9.892283e-01	9.903223e-01	9.920266e-01	9.943853e-01	9.973197e-01	1.000741e+00	1.004631e+00	1.008907e+00	1.013132e+00	1.016594e+00	1.018940e+00	1.019995e+00	1.020067e+00	1.019777e+00	1.018742e+00	1.016876e+00	1.014689e+00	1.012388e+00	1.009635e+00	1.006270e+00	1.003026e+00	1.000998e+00	1.000241e+00	1.000069e+00	9.971701e-01	9.971635e-01	9.971650e-01	9.971578e-01	9.971432e-01	9.971249e-01	9.971032e-01	9.970787e-01	9.970469e-01	9.970088e-01	9.969660e-01	9.969173e-01	9.968620e-01	9.967993e-01	9.967287e-01	9.966501e-01	9.965619e-01	9.964627e-01	9.963502e-01	9.962203e-01	9.960705e-01	9.959004e-01	9.957079e-01	9.954897e-01	9.952301e-01	9.948965e-01	9.944344e-01	9.937708e-01	9.928169e-01	9.914787e-01	9.897686e-01	9.881490e-01	9.873557e-01	9.872540e-01	9.873421e-01	9.876532e-01	9.882960e-01	9.893480e-01	9.908916e-01	9.929532e-01	9.954731e-01	9.983835e-01	1.001672e+00	1.005316e+00	1.009062e+00	1.012342e+00	1.014698e+00	1.015956e+00	1.016469e+00	1.016418e+00	1.016014e+00	1.014951e+00	1.013440e+00	1.011877e+00	1.010138e+00	1.007750e+00	1.004509e+00	1.001128e+00	9.987428e-01	9.975889e-01	9.971301e-01	9.969228e-01	9.967829e-01	9.966411e-01	9.964569e-01	9.961900e-01	9.957879e-01	9.951827e-01	9.942917e-01	9.930190e-01	9.913353e-01	9.895967e-01	9.885941e-01	9.883970e-01	9.884552e-01	9.887118e-01	9.892894e-01	9.902759e-01	9.917661e-01	9.938130e-01	9.963699e-01	9.993431e-01	1.002680e+00	1.006345e+00	1.010125e+00	1.013517e+00	1.016016e+00	1.017429e+00	1.018152e+00	1.018254e+00	1.017949e+00	1.017070e+00	1.015685e+00	1.014183e+00	1.012497e+00	1.010162e+00	1.006909e+00	1.003480e+00	1.001193e+00	1.000298e+00	1.000088e+00	9.971193e-01	9.971117e-01	9.971127e-01	9.971059e-01	9.970907e-01	9.970710e-01	9.970476e-01	9.970226e-01	9.969903e-01	9.969514e-01	9.969067e-01	9.968567e-01	9.967993e-01	9.967347e-01	9.966621e-01	9.965806e-01	9.964884e-01	9.963820e-01	9.962602e-01	9.961196e-01	9.959587e-01	9.957791e-01	9.955782e-01	9.953448e-01	9.950513e-01	9.946611e-01	9.940971e-01	9.932713e-01	9.920629e-01	9.904060e-01	9.886263e-01	9.875739e-01	9.873800e-01	9.874208e-01	9.876656e-01	9.882472e-01	9.892421e-01	9.906911e-01	9.926043e-01	9.949238e-01	9.975458e-01	1.000424e+00	1.003567e+00	1.006841e+00	1.009878e+00	1.012210e+00	1.013574e+00	1.014146e+00	1.014408e+00	1.014440e+00	1.014154e+00	1.013462e+00	1.012538e+00	1.011587e+00	1.010318e+00	1.008217e+00	1.005017e+00	1.001476e+00	9.988777e-01	9.975812e-01	9.970526e-01	9.968137e-01	9.966566e-01	9.964999e-01	9.962930e-01	9.959812e-01	9.954940e-01	9.947418e-01	9.936114e-01	9.920087e-01	9.901557e-01	9.888898e-01	9.885578e-01	9.885642e-01	9.887544e-01	9.892638e-01	9.901898e-01	9.915793e-01	9.934597e-01	9.957979e-01	9.984926e-01	1.001462e+00	1.004672e+00	1.007994e+00	1.011083e+00	1.013489e+00	1.015028e+00	1.015717e+00	1.016081e+00	1.016296e+00	1.016134e+00	1.015589e+00	1.014758e+00	1.013864e+00	1.012663e+00	1.010650e+00	1.007481e+00	1.003893e+00	1.001380e+00	1.000356e+00	1.000108e+00	9.970636e-01	9.970547e-01	9.970547e-01	9.970477e-01	9.970321e-01	9.970117e-01	9.969871e-01	9.969611e-01	9.969274e-01	9.968868e-01	9.968402e-01	9.967879e-01	9.967287e-01	9.966621e-01	9.965871e-01	9.965017e-01	9.964042e-01	9.962901e-01	9.961592e-01	9.960073e-01	9.958352e-01	9.956460e-01	9.954295e-01	9.951689e-01	9.948287e-01	9.943484e-01	9.936384e-01	9.925656e-01	9.909984e-01	9.891249e-01	9.878155e-01	9.874743e-01	9.874815e-01	9.876460e-01	9.881315e-01	9.890546e-01	9.904511e-01	9.923033e-01	9.945371e-01	9.970372e-01	9.997070e-01	1.002516e+00	1.005440e+00	1.008190e+00	1.010249e+00	1.011565e+00	1.012052e+00	1.012163e+00	1.012191e+00	1.012334e+00	1.012463e+00	1.012262e+00	1.011906e+00	1.011433e+00	1.010522e+00	1.008618e+00	1.005429e+00	1.001754e+00	9.989851e-01	9.975625e-01	9.969660e-01	9.966929e-01	9.965142e-01	9.963350e-01	9.960913e-01	9.957095e-01	9.950932e-01	9.941124e-01	9.926248e-01	9.907359e-01	9.892264e-01	9.886956e-01	9.886624e-01	9.887767e-01	9.891821e-01	9.900249e-01	9.913539e-01	9.931585e-01	9.953872e-01	9.979461e-01	1.000724e+00	1.003649e+00	1.006660e+00	1.009479e+00	1.011627e+00	1.013026e+00	1.013625e+00	1.013811e+00	1.013906e+00	1.014138e+00	1.014480e+00	1.014392e+00	1.014111e+00	1.013692e+00	1.012867e+00	1.011089e+00	1.007969e+00	1.004252e+00	1.001550e+00	1.000413e+00	1.000128e+00	9.970028e-01	9.969926e-01	9.969912e-01	9.969836e-01	9.969677e-01	9.969469e-01	9.969209e-01	9.968930e-01	9.968582e-01	9.968144e-01	9.967652e-01	9.967112e-01	9.966501e-01	9.965806e-01	9.965017e-01	9.964114e-01	9.963064e-01	9.961832e-01	9.960405