# vtk DataFile Version 3.0
vtk output
ASCII
DATASET STRUCTURED_GRID
DIMENSIONS 101 101 1
POINTS 10201 double
0.000000e+00	0.000000e+00	0.0	1.000000e-02	0.000000e+00	0.0	2.000000e-02	0.000000e+00	0.0	3.000000e-02	0.000000e+00	0.0	4.000000e-02	0.000000e+00	0.0	5.000000e-02	0.000000e+00	0.0	6.000000e-02	0.000000e+00	0.0	7.000000e-02	0.000000e+00	0.0	8.000000e-02	0.000000e+00	0.0	9.000000e-02	0.000000e+00	0.0	1.000000e-01	0.000000e+00	0.0	1.100000e-01	0.000000e+00	0.0	1.200000e-01	0.000000e+00	0.0	1.300000e-01	0.000000e+00	0.0	1.400000e-01	0.000000e+00	0.0	1.500000e-01	0.000000e+00	0.0	1.600000e-01	0.000000e+00	0.0	1.700000e-01	0.000000e+00	0.0	1.800000e-01	0.000000e+00	0.0	1.900000e-01	0.000000e+00	0.0	2.000000e-01	0.000000e+00	0.0	2.100000e-01	0.000000e+00	0.0	2.200000e-01	0.000000e+00	0.0	2.300000e-01	0.000000e+00	0.0	2.400000e-01	0.000000e+00	0.0	2.500000e-01	0.000000e+00	0.0	2.600000e-01	0.000000e+00	0.0	2.700000e-01	0.000000e+00	0.0	2.800000e-01	0.000000e+00	0.0	2.900000e-01	0.000000e+00	0.0	3.000000e-01	0.000000e+00	0.0	3.100000e-01	0.000000e+00	0.0	3.200000e-01	0.000000e+00	0.0	3.300000e-01	0.000000e+00	0.0	3.400000e-01	0.000000e+00	0.0	3.500000e-01	0.000000e+00	0.0	3.600000e-01	0.000000e+00	0.0	3.700000e-01	0.000000e+00	0.0	3.800000e-01	0.000000e+00	0.0	3.900000e-01	0.000000e+00	0.0	4.000000e-01	0.000000e+00	0.0	4.100000e-01	0.000000e+00	0.0	4.200000e-01	0.000000e+00	0.0	4.300000e-01	0.000000e+00	0.0	4.400000e-01	0.000000e+00	0.0	4.500000e-01	0.000000e+00	0.0	4.600000e-01	0.000000e+00	0.0	4.700000e-01	0.000000e+00	0.0	4.800000e-01	0.000000e+00	0.0	4.900000e-01	0.000000e+00	0.0	5.000000e-01	0.000000e+00	0.0	5.100000e-01	0.000000e+00	0.0	5.200000e-01	0.000000e+00	0.0	5.300000e-01	0.000000e+00	0.0	5.400000e-01	0.000000e+00	0.0	5.500000e-01	0.000000e+00	0.0	5.600000e-01	0.000000e+00	0.0	5.700000e-01	0.000000e+00	0.0	5.800000e-01	0.000000e+00	0.0	5.900000e-01	0.000000e+00	0.0	6.000000e-01	0.000000e+00	0.0	6.100000e-01	0.000000e+00	0.0	6.200000e-01	0.000000e+00	0.0	6.300000e-01	0.000000e+00	0.0	6.400000e-01	0.000000e+00	0.0	6.500000e-01	0.000000e+00	0.0	6.600000e-01	0.000000e+00	0.0	6.700000e-01	0.000000e+00	0.0	6.800000e-01	0.000000e+00	0.0	6.900000e-01	0.000000e+00	0.0	7.000000e-01	0.000000e+00	0.0	7.100000e-01	0.000000e+00	0.0	7.200000e-01	0.000000e+00	0.0	7.300000e-01	0.000000e+00	0.0	7.400000e-01	0.000000e+00	0.0	7.500000e-01	0.000000e+00	0.0	7.600000e-01	0.000000e+00	0.0	7.700000e-01	0.000000e+00	0.0	7.800000e-01	0.000000e+00	0.0	7.900000e-01	0.000000e+00	0.0	8.000000e-01	0.000000e+00	0.0	8.100000e-01	0.000000e+00	0.0	8.200000e-01	0.000000e+00	0.0	8.300000e-01	0.000000e+00	0.0	8.400000e-01	0.000000e+00	0.0	8.500000e-01	0.000000e+00	0.0	8.600000e-01	0.000000e+00	0.0	8.700000e-01	0.000000e+00	0.0	8.800000e-01	0.000000e+00	0.0	8.900000e-01	0.000000e+00	0.0	9.000000e-01	0.000000e+00	0.0	9.100000e-01	0.000000e+00	0.0	9.200000e-01	0.000000e+00	0.0	9.300000e-01	0.000000e+00	0.0	9.400000e-01	0.000000e+00	0.0	9.500000e-01	0.000000e+00	0.0	9.600000e-01	0.000000e+00	0.0	9.700000e-01	0.000000e+00	0.0	9.800000e-01	0.000000e+00	0.0	9.900000e-01	0.000000e+00	0.0	1.000000e+00	0.000000e+00	0.0	0.000000e+00	1.000000e-02	0.0	1.000000e-02	1.000000e-02	0.0	2.000000e-02	1.000000e-02	0.0	3.000000e-02	1.000000e-02	0.0	4.000000e-02	1.000000e-02	0.0	5.000000e-02	1.000000e-02	0.0	6.000000e-02	1.000000e-02	0.0	7.000000e-02	1.000000e-02	0.0	8.000000e-02	1.000000e-02	0.0	9.000000e-02	1.000000e-02	0.0	1.000000e-01	1.000000e-02	0.0	1.100000e-01	1.000000e-02	0.0	1.200000e-01	1.000000e-02	0.0	1.300000e-01	1.000000e-02	0.0	1.400000e-01	1.000000e-02	0.0	1.500000e-01	1.000000e-02	0.0	1.600000e-01	1.000000e-02	0.0	1.700000e-01	1.000000e-02	0.0	1.800000e-01	1.000000e-02	0.0	1.900000e-01	1.000000e-02	0.0	2.000000e-01	1.000000e-02	0.0	2.100000e-01	1.000000e-02	0.0	2.200000e-01	1.000000e-02	0.0	2.300000e-01	1.000000e-02	0.0	2.400000e-01	1.000000e-02	0.0	2.500000e-01	1.000000e-02	0.0	2.600000e-01	1.000000e-02	0.0	2.700000e-01	1.000000e-02	0.0	2.800000e-01	1.000000e-02	0.0	2.900000e-01	1.000000e-02	0.0	3.000000e-01	1.000000e-02	0.0	3.100000e-01	1.000000e-02	0.0	3.200000e-01	1.000000e-02	0.0	3.300000e-01	1.000000e-02	0.0	3.400000e-01	1.000000e-02	0.0	3.500000e-01	1.000000e-02	0.0	3.600000e-01	1.000000e-02	0.0	3.700000e-01	1.000000e-02	0.0	3.800000e-01	1.000000e-02	0.0	3.900000e-01	1.000000e-02	0.0	4.000000e-01	1.000000e-02	0.0	4.100000e-01	1.000000e-02	0.0	4.200000e-01	1.000000e-02	0.0	4.300000e-01	1.000000e-02	0.0	4.400000e-01	1.000000e-02	0.0	4.500000e-01	1.000000e-02	0.0	4.600000e-01	1.000000e-02	0.0	4.700000e-01	1.000000e-02	0.0	4.800000e-01	1.000000e-02	0.0	4.900000e-01	1.000000e-02	0.0	5.000000e-01	1.000000e-02	0.0	5.100000e-01	1.000000e-02	0.0	5.200000e-01	1.000000e-02	0.0	5.300000e-01	1.000000e-02	0.0	5.400000e-01	1.000000e-02	0.0	5.500000e-01	1.000000e-02	0.0	5.600000e-01	1.000000e-02	0.0	5.700000e-01	1.000000e-02	0.0	5.800000e-01	1.000000e-02	0.0	5.900000e-01	1.000000e-02	0.0	6.000000e-01	1.000000e-02	0.0	6.100000e-01	1.000000e-02	0.0	6.200000e-01	1.000000e-02	0.0	6.300000e-01	1.000000e-02	0.0	6.400000e-01	1.000000e-02	0.0	6.500000e-01	1.000000e-02	0.0	6.600000e-01	1.000000e-02	0.0	6.700000e-01	1.000000e-02	0.0	6.800000e-01	1.000000e-02	0.0	6.900000e-01	1.000000e-02	0.0	7.000000e-01	1.000000e-02	0.0	7.100000e-01	1.000000e-02	0.0	7.200000e-01	1.000000e-02	0.0	7.300000e-01	1.000000e-02	0.0	7.400000e-01	1.000000e-02	0.0	7.500000e-01	1.000000e-02	0.0	7.600000e-01	1.000000e-02	0.0	7.700000e-01	1.000000e-02	0.0	7.800000e-01	1.000000e-02	0.0	7.900000e-01	1.000000e-02	0.0	8.000000e-01	1.000000e-02	0.0	8.100000e-01	1.000000e-02	0.0	8.200000e-01	1.000000e-02	0.0	8.300000e-01	1.000000e-02	0.0	8.400000e-01	1.000000e-02	0.0	8.500000e-01	1.000000e-02	0.0	8.600000e-01	1.000000e-02	0.0	8.700000e-01	1.000000e-02	0.0	8.800000e-01	1.000000e-02	0.0	8.900000e-01	1.000000e-02	0.0	9.000000e-01	1.000000e-02	0.0	9.100000e-01	1.000000e-02	0.0	9.200000e-01	1.000000e-02	0.0	9.300000e-01	1.000000e-02	0.0	9.400000e-01	1.000000e-02	0.0	9.500000e-01	1.000000e-02	0.0	9.600000e-01	1.000000e-02	0.0	9.700000e-01	1.000000e-02	0.0	9.800000e-01	1.000000e-02	0.0	9.900000e-01	1.000000e-02	0.0	1.000000e+00	1.000000e-02	0.0	0.000000e+00	2.000000e-02	0.0	1.000000e-02	2.000000e-02	0.0	2.000000e-02	2.000000e-02	0.0	3.000000e-02	2.000000e-02	0.0	4.000000e-02	2.000000e-02	0.0	5.000000e-02	2.000000e-02	0.0	6.000000e-02	2.000000e-02	0.0	7.000000e-02	2.000000e-02	0.0	8.000000e-02	2.000000e-02	0.0	9.000000e-02	2.000000e-02	0.0	1.000000e-01	2.000000e-02	0.0	1.100000e-01	2.000000e-02	0.0	1.200000e-01	2.000000e-02	0.0	1.300000e-01	2.000000e-02	0.0	1.400000e-01	2.000000e-02	0.0	1.500000e-01	2.000000e-02	0.0	1.600000e-01	2.000000e-02	0.0	1.700000e-01	2.000000e-02	0.0	1.800000e-01	2.000000e-02	0.0	1.900000e-01	2.000000e-02	0.0	2.000000e-01	2.000000e-02	0.0	2.100000e-01	2.000000e-02	0.0	2.200000e-01	2.000000e-02	0.0	2.300000e-01	2.000000e-02	0.0	2.400000e-01	2.000000e-02	0.0	2.500000e-01	2.000000e-02	0.0	2.600000e-01	2.000000e-02	0.0	2.700000e-01	2.000000e-02	0.0	2.800000e-01	2.000000e-02	0.0	2.900000e-01	2.000000e-02	0.0	3.000000e-01	2.000000e-02	0.0	3.100000e-01	2.000000e-02	0.0	3.200000e-01	2.000000e-02	0.0	3.300000e-01	2.000000e-02	0.0	3.400000e-01	2.000000e-02	0.0	3.500000e-01	2.000000e-02	0.0	3.600000e-01	2.000000e-02	0.0	3.700000e-01	2.000000e-02	0.0	3.800000e-01	2.000000e-02	0.0	3.900000e-01	2.000000e-02	0.0	4.000000e-01	2.000000e-02	0.0	4.100000e-01	2.000000e-02	0.0	4.200000e-01	2.000000e-02	0.0	4.300000e-01	2.000000e-02	0.0	4.400000e-01	2.000000e-02	0.0	4.500000e-01	2.000000e-02	0.0	4.600000e-01	2.000000e-02	0.0	4.700000e-01	2.000000e-02	0.0	4.800000e-01	2.000000e-02	0.0	4.900000e-01	2.000000e-02	0.0	5.000000e-01	2.000000e-02	0.0	5.100000e-01	2.000000e-02	0.0	5.200000e-01	2.000000e-02	0.0	5.300000e-01	2.000000e-02	0.0	5.400000e-01	2.000000e-02	0.0	5.500000e-01	2.000000e-02	0.0	5.600000e-01	2.000000e-02	0.0	5.700000e-01	2.000000e-02	0.0	5.800000e-01	2.000000e-02	0.0	5.900000e-01	2.000000e-02	0.0	6.000000e-01	2.000000e-02	0.0	6.100000e-01	2.000000e-02	0.0	6.200000e-01	2.000000e-02	0.0	6.300000e-01	2.000000e-02	0.0	6.400000e-01	2.000000e-02	0.0	6.500000e-01	2.000000e-02	0.0	6.600000e-01	2.000000e-02	0.0	6.700000e-01	2.000000e-02	0.0	6.800000e-01	2.000000e-02	0.0	6.900000e-01	2.000000e-02	0.0	7.000000e-01	2.000000e-02	0.0	7.100000e-01	2.000000e-02	0.0	7.200000e-01	2.000000e-02	0.0	7.300000e-01	2.000000e-02	0.0	7.400000e-01	2.000000e-02	0.0	7.500000e-01	2.000000e-02	0.0	7.600000e-01	2.000000e-02	0.0	7.700000e-01	2.000000e-02	0.0	7.800000e-01	2.000000e-02	0.0	7.900000e-01	2.000000e-02	0.0	8.000000e-01	2.000000e-02	0.0	8.100000e-01	2.000000e-02	0.0	8.200000e-01	2.000000e-02	0.0	8.300000e-01	2.000000e-02	0.0	8.400000e-01	2.000000e-02	0.0	8.500000e-01	2.000000e-02	0.0	8.600000e-01	2.000000e-02	0.0	8.700000e-01	2.000000e-02	0.0	8.800000e-01	2.000000e-02	0.0	8.900000e-01	2.000000e-02	0.0	9.000000e-01	2.000000e-02	0.0	9.100000e-01	2.000000e-02	0.0	9.200000e-01	2.000000e-02	0.0	9.300000e-01	2.000000e-02	0.0	9.400000e-01	2.000000e-02	0.0	9.500000e-01	2.000000e-02	0.0	9.600000e-01	2.000000e-02	0.0	9.700000e-01	2.000000e-02	0.0	9.800000e-01	2.000000e-02	0.0	9.900000e-01	2.000000e-02	0.0	1.000000e+00	2.000000e-02	0.0	0.000000e+00	3.000000e-02	0.0	1.000000e-02	3.000000e-02	0.0	2.000000e-02	3.000000e-02	0.0	3.000000e-02	3.000000e-02	0.0	4.000000e-02	3.000000e-02	0.0	5.000000e-02	3.000000e-02	0.0	6.000000e-02	3.000000e-02	0.0	7.000000e-02	3.000000e-02	0.0	8.000000e-02	3.000000e-02	0.0	9.000000e-02	3.000000e-02	0.0	1.000000e-01	3.000000e-02	0.0	1.100000e-01	3.000000e-02	0.0	1.200000e-01	3.000000e-02	0.0	1.300000e-01	3.000000e-02	0.0	1.400000e-01	3.000000e-02	0.0	1.500000e-01	3.000000e-02	0.0	1.600000e-01	3.000000e-02	0.0	1.700000e-01	3.000000e-02	0.0	1.800000e-01	3.000000e-02	0.0	1.900000e-01	3.000000e-02	0.0	2.000000e-01	3.000000e-02	0.0	2.100000e-01	3.000000e-02	0.0	2.200000e-01	3.000000e-02	0.0	2.300000e-01	3.000000e-02	0.0	2.400000e-01	3.000000e-02	0.0	2.500000e-01	3.000000e-02	0.0	2.600000e-01	3.000000
[...]
POINT_DATA 10201

SCALARS Height double 1
LOOKUP_TABLE default
9.990691e-01	9.990840e-01	9.990811e-01	9.990811e-01	9.990820e-01	9.990829e-01	9.990833e-01	9.990789e-01	9.990745e-01	9.990701e-01	9.990643e-01	9.990585e-01	9.990538e-01	9.990509e-01	9.990493e-01	9.990480e-01	9.990447e-01	9.990415e-01	9.990383e-01	9.990341e-01	9.990285e-01	9.990177e-01	9.990061e-01	9.989960e-01	9.989913e-01	9.989858e-01	9.989790e-01	9.989684e-01	9.989537e-01	9.989356e-01	9.989158e-01	9.988958e-01	9.988768e-01	9.988584e-01	9.988414e-01	9.988250e-01	9.988084e-01	9.987906e-01	9.987715e-01	9.987508e-01	9.987283e-01	9.987039e-01	9.986773e-01	9.986488e-01	9.986184e-01	9.985862e-01	9.985516e-01	9.985141e-01	9.984731e-01	9.984281e-01	9.983793e-01	9.983269e-01	9.982712e-01	9.982118e-01	9.981481e-01	9.980791e-01	9.980031e-01	9.979187e-01	9.978234e-01	9.977156e-01	9.975983e-01	9.974748e-01	9.973496e-01	9.972568e-01	9.973125e-01	9.977862e-01	9.992496e-01	1.002471e+00	1.007366e+00	1.012125e+00	1.014463e+00	1.014273e+00	1.012900e+00	1.010905e+00	1.008096e+00	1.004344e+00	9.999084e-01	9.952479e-01	9.912121e-01	9.885486e-01	9.876833e-01	9.887485e-01	9.915743e-01	9.956807e-01	1.000271e+00	1.004560e+00	1.008134e+00	1.010804e+00	1.012721e+00	1.014017e+00	1.013980e+00	1.011312e+00	1.006282e+00	1.001273e+00	9.980356e-01	9.965926e-01	9.961432e-01	9.961000e-01	9.961811e-01	9.962462e-01	9.962713e-01	9.990839e-01	9.990941e-01	9.990858e-01	9.990851e-01	9.990853e-01	9.990855e-01	9.990847e-01	9.990819e-01	9.990783e-01	9.990724e-01	9.990636e-01	9.990534e-01	9.990447e-01	9.990391e-01	9.990365e-01	9.990358e-01	9.990345e-01	9.990329e-01	9.990283e-01	9.990223e-01	9.990153e-01	9.990048e-01	9.989958e-01	9.989857e-01	9.989735e-01	9.989657e-01	9.989569e-01	9.989459e-01	9.989332e-01	9.989186e-01	9.989028e-01	9.988869e-01	9.988718e-01	9.988574e-01	9.988417e-01	9.988257e-01	9.988090e-01	9.987912e-01	9.987718e-01	9.987508e-01	9.987279e-01	9.987028e-01	9.986759e-01	9.986469e-01	9.986160e-01	9.985832e-01	9.985480e-01	9.985099e-01	9.984684e-01	9.984231e-01	9.983739e-01	9.983211e-01	9.982649e-01	9.982051e-01	9.981410e-01	9.980716e-01	9.979955e-01	9.979109e-01	9.978148e-01	9.977056e-01	9.975871e-01	9.974631e-01	9.973299e-01	9.972070e-01	9.971563e-01	9.974379e-01	9.988048e-01	1.002301e+00	1.007644e+00	1.012364e+00	1.014511e+00	1.014259e+00	1.012950e+00	1.011119e+00	1.008205e+00	1.004322e+00	9.998115e-01	9.950810e-01	9.909386e-01	9.881595e-01	9.872531e-01	9.883754e-01	9.913232e-01	9.955343e-01	1.000196e+00	1.004549e+00	1.008259e+00	1.011006e+00	1.012751e+00	1.014000e+00	1.014039e+00	1.011558e+00	1.006542e+00	1.001074e+00	9.975812e-01	9.962476e-01	9.959965e-01	9.960585e-01	9.961633e-01	9.962315e-01	9.962589e-01	9.990915e-01	9.990999e-01	9.990912e-01	9.990897e-01	9.990891e-01	9.990887e-01	9.990873e-01	9.990844e-01	9.990801e-01	9.990748e-01	9.990682e-01	9.990615e-01	9.990548e-01	9.990494e-01	9.990451e-01	9.990407e-01	9.990364e-01	9.990331e-01	9.990284e-01	9.990220e-01	9.990150e-01	9.990042e-01	9.989939e-01	9.989866e-01	9.989790e-01	9.989731e-01	9.989684e-01	9.989594e-01	9.989467e-01	9.989305e-01	9.989122e-01	9.988931e-01	9.988746e-01	9.988573e-01	9.988418e-01	9.988265e-01	9.988105e-01	9.987934e-01	9.987744e-01	9.987537e-01	9.987311e-01	9.987067e-01	9.986804e-01	9.986521e-01	9.986218e-01	9.985891e-01	9.985539e-01	9.985158e-01	9.984744e-01	9.984295e-01	9.983808e-01	9.983281e-01	9.982715e-01	9.982111e-01	9.981465e-01	9.980769e-01	9.980008e-01	9.979163e-01	9.978199e-01	9.977094e-01	9.975896e-01	9.974644e-01	9.973294e-01	9.971982e-01	9.971372e-01	9.974199e-01	9.988555e-01	1.002499e+00	1.007818e+00	1.012338e+00	1.014314e+00	1.014046e+00	1.012784e+00	1.011073e+00	1.008231e+00	1.004304e+00	9.998499e-01	9.952400e-01	9.911949e-01	9.884715e-01	9.875851e-01	9.886928e-01	9.915806e-01	9.956851e-01	1.000226e+00	1.004530e+00	1.008288e+00	1.010942e+00	1.012574e+00	1.013782e+00	1.013847e+00	1.011545e+00	1.006727e+00	1.001281e+00	9.976419e-01	9.962345e-01	9.959761e-01	9.960445e-01	9.961543e-01	9.962229e-01	9.962485e-01	9.990886e-01	9.990953e-01	9.990886e-01	9.990863e-01	9.990856e-01	9.990849e-01	9.990836e-01	9.990810e-01	9.990776e-01	9.990736e-01	9.990673e-01	9.990597e-01	9.990522e-01	9.990464e-01	9.990425e-01	9.990397e-01	9.990369e-01	9.990343e-01	9.990295e-01	9.990236e-01	9.990168e-01	9.990061e-01	9.989956e-01	9.989873e-01	9.989784e-01	9.989725e-01	9.989655e-01	9.989559e-01	9.989431e-01	9.989272e-01	9.989092e-01	9.988906e-01	9.988726e-01	9.988558e-01	9.988400e-01	9.988248e-01	9.988090e-01	9.987918e-01	9.987726e-01	9.987515e-01	9.987286e-01	9.987040e-01	9.986778e-01	9.986496e-01	9.986191e-01	9.985863e-01	9.985506e-01	9.985119e-01	9.984704e-01	9.984256e-01	9.983770e-01	9.983244e-01	9.982676e-01	9.982066e-01	9.981412e-01	9.980711e-01	9.979948e-01	9.979101e-01	9.978135e-01	9.977020e-01	9.975802e-01	9.974538e-01	9.973178e-01	9.971828e-01	9.971089e-01	9.973672e-01	9.988036e-01	1.002506e+00	1.007832e+00	1.012224e+00	1.014086e+00	1.013795e+00	1.012548e+00	1.010957e+00	1.008314e+00	1.004437e+00	9.999545e-01	9.953706e-01	9.913909e-01	9.887203e-01	9.878549e-01	9.889456e-01	9.917799e-01	9.958148e-01	1.000335e+00	1.004660e+00	1.008341e+00	1.010807e+00	1.012328e+00	1.013524e+00	1.013618e+00	1.011435e+00	1.006747e+00	1.001297e+00	9.976056e-01	9.961910e-01	9.959476e-01	9.960231e-01	9.961326e-01	9.961997e-01	9.962259e-01	9.990887e-01	9.990949e-01	9.990882e-01	9.990854e-01	9.990842e-01	9.990827e-01	9.990812e-01	9.990782e-01	9.990753e-01	9.990718e-01	9.990662e-01	9.990588e-01	9.990510e-01	9.990447e-01	9.990404e-01	9.990371e-01	9.990345e-01	9.990317e-01	9.990269e-01	9.990212e-01	9.990145e-01	9.990040e-01	9.989941e-01	9.989859e-01	9.989768e-01	9.989708e-01	9.989633e-01	9.989536e-01	9.989408e-01	9.989249e-01	9.989066e-01	9.988877e-01	9.988693e-01	9.988525e-01	9.988370e-01	9.988219e-01	9.988065e-01	9.987894e-01	9.987704e-01	9.987494e-01	9.987265e-01	9.987019e-01	9.986757e-01	9.986477e-01	9.986173e-01	9.985843e-01	9.985484e-01	9.985094e-01	9.984677e-01	9.984228e-01	9.983744e-01	9.983219e-01	9.982649e-01	9.982034e-01	9.981373e-01	9.980663e-01	9.979893e-01	9.979042e-01	9.978072e-01	9.976949e-01	9.975716e-01	9.974433e-01	9.973059e-01	9.971703e-01	9.970926e-01	9.973442e-01	9.987805e-01	1.002484e+00	1.007758e+00	1.012038e+00	1.013801e+00	1.013481e+00	1.012232e+00	1.010736e+00	1.008369e+00	1.004663e+00	1.000154e+00	9.955924e-01	9.917084e-01	9.891250e-01	9.882909e-01	9.893489e-01	9.920929e-01	9.960359e-01	1.000543e+00	1.004882e+00	1.008352e+00	1.010553e+00	1.012008e+00	1.013206e+00	1.013330e+00	1.011248e+00	1.006669e+00	1.001291e+00	9.976078e-01	9.961807e-01	9.959292e-01	9.960007e-01	9.961061e-01	9.961701e-01	9.961964e-01	9.990880e-01	9.990944e-01	9.990869e-01	9.990839e-01	9.990821e-01	9.990803e-01	9.990787e-01	9.990759e-01	9.990736e-01	9.990703e-01	9.990652e-01	9.990581e-01	9.990502e-01	9.990434e-01	9.990386e-01	9.990349e-01	9.990319e-01	9.990288e-01	9.990240e-01	9.990187e-01	9.990123e-01	9.990018e-01	9.989942e-01	9.989848e-01	9.989761e-01	9.989702e-01	9.989627e-01	9.989530e-01	9.989401e-01	9.989236e-01	9.989051e-01	9.988857e-01	9.988673e-01	9.988501e-01	9.988344e-01	9.988194e-01	9.988039e-01	9.987871e-01	9.987682e-01	9.987471e-01	9.987241e-01	9.986994e-01	9.986729e-01	9.986445e-01	9.986138e-01	9.985805e-01	9.985444e-01	9.985052e-01	9.984631e-01	9.984180e-01	9.983693e-01	9.983166e-01	9.982594e-01	9.981975e-01	9.981308e-01	9.980589e-01	9.979809e-01	9.978948e-01	9.977969e-01	9.976839e-01	9.975597e-01	9.974304e-01	9.972918e-01	9.971552e-01	9.970786e-01	9.973371e-01	9.987773e-01	1.002433e+00	1.007591e+00	1.011752e+00	1.013447e+00	1.013100e+00	1.011852e+00	1.010464e+00	1.008395e+00	1.004945e+00	1.000472e+00	9.959159e-01	9.921257e-01	9.896523e-01	9.888570e-01	9.898612e-01	9.924921e-01	9.963539e-01	1.000865e+00	1.005145e+00	1.008332e+00	1.010248e+00	1.011624e+00	1.012822e+00	1.012968e+00	1.010953e+00	1.006504e+00	1.001261e+00	9.976368e-01	9.961926e-01	9.959155e-01	9.959746e-01	9.960734e-01	9.961339e-01	9.961602e-01	9.990859e-01	9.990915e-01	9.990844e-01	9.990819e-01	9.990797e-01	9.990780e-01	9.990766e-01	9.990742e-01	9.990719e-01	9.990692e-01	9.990643e-01	9.990573e-01	9.990495e-01	9.990426e-01	9.990374e-01	9.990332e-01	9.990290e-01	9.990249e-01	9.990203e-01	9.990152e-01	9.990091e-01	9.989990e-01	9.989926e-01	9.989828e-01	9.989743e-01	9.989688e-01	9.989614e-01	9.989514e-01	9.989380e-01	9.989215e-01	9.989025e-01	9.988831e-01	9.988645e-01	9.988473e-01	9.988312e-01	9.988159e-01	9.988004e-01	9.987836e-01	9.987650e-01	9.987443e-01	9.987214e-01	9.986965e-01	9.986697e-01	9.986410e-01	9.986100e-01	9.985765e-01	9.985403e-01	9.985011e-01	9.984589e-01	9.984133e-01	9.983641e-01	9.983108e-01	9.982531e-01	9.981907e-01	9.981233e-01	9.980505e-01	9.979711e-01	9.978834e-01	9.977839e-01	9.976697e-01	9.975450e-01	9.974158e-01	9.972761e-01	9.971379e-01	9.970656e-01	9.973419e-01	9.987922e-01	1.002361e+00	1.007336e+00	1.011362e+00	1.013010e+00	1.012641e+00	1.011415e+00	1.010168e+00	1.008392e+00	1.005237e+00	1.000876e+00	9.963520e-01	9.926471e-01	9.902833e-01	9.895288e-01	9.904705e-01	9.929888e-01	9.967812e-01	1.001264e+00	1.005411e+00	1.008287e+00	1.009919e+00	1.011176e+00	1.012358e+00	1.012517e+00	1.010555e+00	1.006257e+00	1.001214e+00	9.976874e-01	9.962230e-01	9.959064e-01	9.959455e-01	9.960356e-01	9.960923e-01	9.961182e-01	9.990789e-01	9.990860e-01	9.990796e-01	9.990779e-01	9.990761e-01	9.990748e-01	9.990736e-01	9.990723e-01	9.990701e-01	9.990674e-01	9.990627e-01	9.990563e-01	9.990490e-01	9.990425e-01	9.990373e-01	9.990326e-01	9.990279e-01	9.990225e-01	9.990181e-01	9.990121e-01	9.990065e-01	9.989971e-01	9.989904e-01	9.989813e-01	9.989745e-01	9.989679e-01	9.989597e-01	9.989487e-01	9.989345e-01	9.989173e-01	9.988986e-01	9.988793e-01	9.988609e-01	9.988436e-01	9.988273e-01	9.988116e-01	9.987958e-01	9.987790e-01	9.987605e-01	9.987399e-01	9.987171e-01	9.986921e-01	9.986651e-01	9.986359e-01	9.986046e-01	9.985709e-01	9.985347e-01	9.984957e-01	9.984535e-01	9.984078e-01	9.983582e-01	9.983044e-01	9.982462e-01	9.981833e-01	9.981153e-01	9.980415e-01	9.979609e-01	9.978714e-01	9.977699e-01	9.976540e-01	9.975294e-01	9.973994e-01	9.972583e-01	9.971203e-01	9.970547e-01	9.973570e-01	9.988191e-01	1.002268e+00	1.007012e+00	1.010877e+00	1.012474e+00	1.012102e+00	1.010935e+00	1.009857e+00	1.008370e+00	1.005528e+00	1.001347e+00	9.969046e-01	9.932822e-01	9.910162e-01	9.903005e-01	9.911824e-01	9.935988e-01	9.973176e-01	1.001719e+00	1.005669e+00	1.008226e+00	1.009577e+00	1.010678e+00	1.011809e+00	1.011969e+00	1.010062e+00	1.005946e+00	1.001153e+00	9.977511e-01	9.962664e-01	9.959014e-01	9.959144e-01	9.959934e-01	9.960464e-01	9.960707e-01	9.990720e-01	9.990829e-01	9.990753e-01	9.990744e-01	9.990725e-01	9.990724e-01	9.990716e-01	9.990702e-01	9.990681e-01	9.990646e-01	9.990595e-01	9.990532e-01	9.990466e-01	9.990409e-01	9.990362e-01	9.990316e-01	9.990263e-01	9.990204e-01	9.990143e-01	9.990096e-01	9.990039e-01	9.989961e-01	9.989886e-01	9.989793e-01	9.989743e-01	9.989670e-01	9.989579e-01	9.989458e-01	9.989307e-01	9.989131e-01	9.988944e-01	9.988755e-01	9.988573e-01	9.988401e-01	9.988233e-01	9.988072e-01	9.987910e-01	9.987740e-01	9.987554e-01	9.987349e-01	9.987122e-01	9.986871e-01	9.986598e-01	9.986303e-01	9.985984e-01	9.985643e-01	9.985278e-01	9.984887e-01	9.984463e-01	9.984003e-01	9.983503e-01	9.982959e-01	9.982371e-01	9.981736e-01	9.981049e-01	9.980304e-01	9.979487e-01	9.978578e-01	9.977545e-01	9.976374e-01	9.975126e-01	9.973802e-01	9.972382e-01	9.971024e-01	9.970481e-01	9.973829e-01	9.988523e-01	1.002155e+00	1.006631e+00	1.010306e+00	1.011842e+00	1.011491e+00	1.010427e+00	1.009543e+00	1.008335e+00	1.005807e+00	1.001858e+00	9.975556e-01	9.940357e-01	9.918587e-01	9.911776e-01	9.920096e-01	9.943300e-01	9.979455e-01	1.002203e+00	1.005911e+00	1.008150e+00	1.009227e+00	1.010147e+00	1.011188e+00	1.011325e+00	1.009483e+00	1.005580e+00	1.001074e+00	9.978217e-01	9.963206e-01	9.959006e-01	9.958809e-01	9.959460e-01	9.959929e-01	9.960163e-01	9.990682e-01	9.990783e-01	9.990714e-01	9.990714e-01	9.990696e-01	9.990701e-01	9.990700e-01	9.990685e-01	9.990655e-01	9.990613e-01	9.990554e-01	9.990488e-01	9.990430e-01	9.990381e-01	9.990338e-01	9.990291e-01	9.990234e-01	9.990176e-01	9.990115e-01	9.990059e-01	9.990012e-01	9.989941e-01	9.989861e-01	9.989809e-01	9.989730e-01	9.989657e-01	9.989557e-01	9.989428e-01	9.989271e-01	9.989092e-01	9.988904e-01	9.988717e-01	9.988535e-01	9.988361e-01	9.988191e-01	9.988026e-01	9.987859e-01	9.987685e-01	9.987498e-01	9.987292e-01	9.987066e-01	9.986816e-01	9.986542e-01	9.986244e-01	9.985923e-01	9.985578e-01	9.985209e-01	9.984812e-01	9.984383e-01	9.983917e-01	9.983409e-01	9.982858e-01	9.982262e-01	9.981617e-01	9.980921e-01	9.980166e-01	9.979337e-01	9.978415e-01	9.977366e-01	9.976187e-01	9.974934e-01	9.973581e-01	9.972153e-01	9.970824e-01	9.970444e-01	9.974184e-01	9.988882e-01	1.002021e+00	1.006195e+00	1.009650e+00	1.011119e+00	1.010821e+00	1.009904e+00	1.009227e+00	1.008287e+00	1.006067e+00	1.002394e+00	9.982924e-01	9.949049e-01	9.928152e-01	9.921643e-01	9.929576e-01	9.951816e-01	9.986530e-01	1.002702e+00	1.006128e+00	1.008057e+00	1.008870e+00	1.009598e+00	1.010500e+00	1.010591e+00	1.008821e+00	1.005164e+00	1.000977e+00	9.978953e-01	9.963836e-01	9.959031e-01	9.958449e-01	9.958924e-01	9.959330e-01	9.959541e-01	9.990643e-01	9.990740e-01	9.990673e-01	9.990680e-01	9.990666e-01	9.990675e-01	9.990678e-01	9.990660e-01	9.990625e-01	9.990570e-01	9.990501e-01	9.990437e-01	9.990384e-01	9.990344e-01	9.990305e-01	9.990259e-01	9.990201e-01	9.990142e-01	9.990080e-01	9.990016e-01	9.989960e-01	9.989909e-01	9.989858e-01	9.989778e-01	9.989707e-01	9.989626e-01	9.989521e-01	9.989388e-01	9.989229e-01	9.989049e-01	9.988864e-01	9.988677e-01	9.988495e-01	9.988319e-01	9.988145e-01	9.987977e-01	9.987806e-01	9.987628e-01	9.987437e-01	9.987229e-01	9.987001e-01	9.986751e-01	9.986477e-01	9.986179e-01	9.985856e-01	9.985509e-01	9.985135e-01	9.984732e-01	9.984295e-01	9.983821e-01	9.983305e-01	9.982747e-01	9.982141e-01	9.981487e-01	9.980780e-01	9.980011e-01	9.979169e-01	9.978231e-01	9.977164e-01	9.975975e-01	9.974709e-01	9.973330e-01	9.971881e-01	9.970584e-01	9.970409e-01	9.974590e-01	9.989231e-01	1.001865e+00	1.005707e+00	1.008909e+00	1.010310e+00	1.010103e+00	1.009377e+00	1.008908e+00	1.008214e+00	1.006299e+00	1.002956e+00	9.991058e-01	9.958823e-01	9.938857e-01	9.932645e-01	9.940233e-01	9.961437e-01	9.994348e-01	1.003212e+00	1.006307e+00	1.007936e+00	1.008512e+00	1.009036e+00	1.009755e+00	1.009769e+00	1.008079e+00	1.004698e+00	1.000860e+00	9.979675e-01	9.964526e-01	9.959086e-01	9.958063e-01	9.958336e-01	9.958666e-01	9.958842e-01	9.990602e-01	9.990700e-01	9.990628e-01	9.990642e-01	9.990631e-01	9.990640e-01	9.990640e-01	9.990624e-01	9.990579e-01	9.990518e-01	9.990448e-01	9.990385e-01	9.990340e-01	9.990306e-01	9.990273e-01	9.990230e-01	9.990178e-01	9.990124e-01	9.990065e-01	9.990016e-01	9.989962e-01	9.989900e-01	9.989829e-01	9.989756e-01	9.989674e-01	9.989585e-01	9.989472e-01	9.989339e-01	9.989174e-01	9.988998e-01	9.988817e-01	9.988633e-01	9.988451e-01	9.988273e-01	9.988095e-01	9.987922e-01	9.987749e-01	9.987568e-01	9.987375e-01	9.987164e-01	9.986932e-01	9.986679e-01	9.986402e-01	9.986103e-01	9.985778e-01	9.985428e-01	9.985048e-01	9.984637e-01	9.984192e-01	9.983709e-01	9.983186e-01	9.982620e-01	9.982007e-01	9.981344e-01	9.980627e-01	9.979847e-01	9.978991e-01	9.978036e-01	9.976948e-01	9.975740e-01	9.974457e-01	9.973045e-01	9.971565e-01	9.970295e-01	9.970352e-01	9.974998e-01	9.989517e-01	1.001690e+00	1.005173e+00	1.008090e+00	1.009421e+00	1.009350e+00	1.008866e+00	1.008584e+00	1.008101e+00	1.006501e+00	1.003537e+00	9.999910e-01	9.969609e-01	9.950699e-01	9.944809e-01	9.952021e-01	9.972073e-01	1.000286e+00	1.003735e+00	1.006440e+00	1.007779e+00	1.008156e+00	1.008479e+00	1.008965e+00	1.008863e+00	1.007263e+00	1.004191e+00	1.000723e+00	9.980326e-01	9.965227e-01	9.959145e-01	9.957638e-01	9.957686e-01	9.957931e-01	9.958065e-01	9.990566e-01	9.990661e-01	9.990579e-01	9.990598e-01	9.990587e-01	9.990588e-01	9.990581e-01	9.990565e-01	9.990523e-01	9.990456e-01	9.990392e-01	9.990340e-01	9.990300e-01	9.990270e-01	9.990241e-01	9.990202e-01	9.990153e-01	9.990099e-01	9.990042e-01	9.989984e-01	9.989922e-01	9.989864e-01	9.989794e-01	9.989719e-01	9.989631e-01	9.989531e-01	9.989411e-01	9.989264e-01	9.989105e-01	9.988935e-01	9.988757e-01	9.988579e-01	9.988398e-01	9.988214e-01	9.988035e-01	9.987860e-01	9.987686e-01	9.987506e-01	9.987313e-01	9.987100e-01	9.986865e-01	9.986607e-01	9.986326e-01	9.986021e-01	9.985691e-01	9.985334e-01	9.984947e-01	9.984527e-01	9.984071e-01	9.983579e-01	9.983047e-01	9.982473e-01	9.981853e-01	9.981183e-01	9.980458e-01	9.979668e-01	9.978800e-01	9.977828e-01	9.976716e-01	9.975483e-01	9.974171e-01	9.972724e-01	9.971205e-01	9.969955e-01	9.970256e-01	9.975361e-01	9.989675e-01	1.001489e+00	1.004595e+00	1.007201e+00	1.008467e+00	1.008592e+00	1.008380e+00	1.008258e+00	1.007935e+00	1.006665e+00	1.004134e+00	1.000939e+00	9.981367e-01	9.963681e-01	9.958149e-01	9.964922e-01	9.983646e-01	1.001199e+00	1.004265e+00	1.006529e+00	1.007574e+00	1.007806e+00	1.007944e+00	1.008153e+00	1.007888e+00	1.006385e+00	1.003647e+00	1.000561e+00	9.980839e-01	9.965879e-01	9.959172e-01	9.957160e-01	9.956966e-01	9.957126e-01	9.957212e-01	9.990531e-01	9.990623e-01	9.990528e-01	9.990552e-01	9.990535e-01	9.990525e-01	9.990508e-01	9.990490e-01	9.990449e-01	9.990393e-01	9.990338e-01	9.990298e-01	9.990264e-01	9.990235e-01	9.990208e-01	9.990176e-01	9.990131e-01	9.990081e-01	9.990022e-01	9.989958e-01	9.989887e-01	9.989826e-01	9.989758e-01	9.989679e-01	9.989584e-01	9.989473e-01	9.989336e-01	9.989187e-01	9.989027e-01	9.988858e-01	9.988694e-01	9.988515e-01	9.988332e-01	9.988149e-01	9.987966e-01	9.987789e-01	9.987615e-01	9.987437e-01	9.987245e-01	9.987034e-01	9.986797e-01	9.986536e-01	9.986250e-01	9.985939e-01	9.985600e-01	9.985233e-01	9.984835e-01	9.984404e-01	9.983939e-01	9.983437e-01	9.982895e-01	9.982311e-01	9.981682e-01	9.981004e-01	9.980271e-01	9.979470e-01	9.978587e-01	9.977595e-01	9.976456e-01	9.975193e-01	9.973843e-01	9.972348e-01	9.970789e-01	9.969561e-01	9.970099e-01	9.975627e-01	9.989661e-01	1.001264e+00	1.003980e+00	1.006256e+00	1.007478e+00	1.007860e+00	1.007924e+00	1.007914e+00	1.007715e+00	1.006792e+00	1.004735e+00	1.001941e+00	9.994029e-01	9.977779e-01	9.972662e-01	9.978901e-01	9.996070e-01	1.002159e+00	1.004796e+00	1.006582e+00	1.007313e+00	1.007446e+00	1.007447e+00	1.007353e+00	1.006864e+00	1.005453e+00	1.003069e+00	1.000374e+00	9.981148e-01	9.966420e-01	9.959121e-01	9.956596e-01	9.956165e-01	9.956247e-01	9.956285e-01	9.990493e-01	9.990589e-01	9.990479e-01	9.990505e-01	9.990475e-01	9.990453e-01	9.990427e-01	9.990408e-01	9.990374e-01	9.990329e-01	9.990286e-01	9.990258e-01	9.990228e-01	9.990202e-01	9.990172e-01	9.990146e-01	9.990111e-01	9.990057e-01	9.989993e-01	9.989918e-01	9.989836e-01	9.989772e-01	9.989707e-01	9.989626e-01	9.989530e-01	9.989400e-01	9.989258e-01	9.989101e-01	9.988953e-01	9.988785e-01	9.988620e-01	9.988447e-01	9.988265e-01	9.988080e-01	9.987895e-01	9.987715e-01	9.987538e-01	9.987358e-01	9.987167e-01	9.986956e-01	9.986721e-01	9.986457e-01	9.986167e-01	9.985848e-01	9.985501e-01	9.985123e-01	9.984714e-01	9.984273e-01	9.983798e-01	9.983286e-01	9.982735e-01	9.982143e-01	9.981505e-01	9.980819e-01	9.980074e-01	9.979259e-01	9.978355e-01	9.977334e-01	9.976159e-01	9.974853e-01	9.973463e-01	9.971916e-01	9.970302e-01	9.969081e-01	9.969840e-01	9.975743e-01	9.989404e-01	1.001006e+00	1.003326e+00	1.005270e+00	1.006496e+00	1.007183e+00	1.007483e+00	1.007535e+00	1.007456e+00	1.006882e+00	1.005330e+00	1.002983e+00	1.000747e+00	9.992925e-01	9.988304e-01	9.993857e-01	1.000920e+00	1.003153e+00	1.005317e+00	1.006602e+00	1.007018e+00	1.007051e+00	1.006971e+00	1.006604e+00	1.005829e+00	1.004479e+00	1.002459e+00	1.000161e+00	9.981225e-01	9.966802e-01	9.958943e-01	9.955918e-01	9.955268e-01	9.955285e-01	9.955283e-01	9.990463e-01	9.990547e-01	9.990426e-01	9.990455e-01	9.990415e-01	9.990381e-01	9.990348e-01	9.990325e-01	9.990301e-01	9.990268e-01	9.990235e-01	9.990212e-01	9.990188e-01	9.990168e-01	9.990142e-01	9.990098e-01	9.990076e-01	9.990028e-01	9.989948