# vtk DataFile Version 3.0
vtk output
ASCII
DATASET STRUCTURED_GRID
DIMENSIONS 101 101 1
POINTS 10201 double
0.000000e+00	0.000000e+00	0.0	1.000000e-02	0.000000e+00	0.0	2.000000e-02	0.000000e+00	0.0	3.000000e-02	0.000000e+00	0.0	4.000000e-02	0.000000e+00	0.0	5.000000e-02	0.000000e+00	0.0	6.000000e-02	0.000000e+00	0.0	7.000000e-02	0.000000e+00	0.0	8.000000e-02	0.000000e+00	0.0	9.000000e-02	0.000000e+00	0.0	1.000000e-01	0.000000e+00	0.0	1.100000e-01	0.000000e+00	0.0	1.200000e-01	0.000000e+00	0.0	1.300000e-01	0.000000e+00	0.0	1.400000e-01	0.000000e+00	0.0	1.500000e-01	0.000000e+00	0.0	1.600000e-01	0.000000e+00	0.0	1.700000e-01	0.000000e+00	0.0	1.800000e-01	0.000000e+00	0.0	1.900000e-01	0.000000e+00	0.0	2.000000e-01	0.000000e+00	0.0	2.100000e-01	0.000000e+00	0.0	2.200000e-01	0.000000e+00	0.0	2.300000e-01	0.000000e+00	0.0	2.400000e-01	0.000000e+00	0.0	2.500000e-01	0.000000e+00	0.0	2.600000e-01	0.000000e+00	0.0	2.700000e-01	0.000000e+00	0.0	2.800000e-01	0.000000e+00	0.0	2.900000e-01	0.000000e+00	0.0	3.000000e-01	0.000000e+00	0.0	3.100000e-01	0.000000e+00	0.0	3.200000e-01	0.000000e+00	0.0	3.300000e-01	0.000000e+00	0.0	3.400000e-01	0.000000e+00	0.0	3.500000e-01	0.000000e+00	0.0	3.600000e-01	0.000000e+00	0.0	3.700000e-01	0.000000e+00	0.0	3.800000e-01	0.000000e+00	0.0	3.900000e-01	0.000000e+00	0.0	4.000000e-01	0.000000e+00	0.0	4.100000e-01	0.000000e+00	0.0	4.200000e-01	0.000000e+00	0.0	4.300000e-01	0.000000e+00	0.0	4.400000e-01	0.000000e+00	0.0	4.500000e-01	0.000000e+00	0.0	4.600000e-01	0.000000e+00	0.0	4.700000e-01	0.000000e+00	0.0	4.800000e-01	0.000000e+00	0.0	4.900000e-01	0.000000e+00	0.0	5.000000e-01	0.000000e+00	0.0	5.100000e-01	0.000000e+00	0.0	5.200000e-01	0.000000e+00	0.0	5.300000e-01	0.000000e+00	0.0	5.400000e-01	0.000000e+00	0.0	5.500000e-01	0.000000e+00	0.0	5.600000e-01	0.000000e+00	0.0	5.700000e-01	0.000000e+00	0.0	5.800000e-01	0.000000e+00	0.0	5.900000e-01	0.000000e+00	0.0	6.000000e-01	0.000000e+00	0.0	6.100000e-01	0.000000e+00	0.0	6.200000e-01	0.000000e+00	0.0	6.300000e-01	0.000000e+00	0.0	6.400000e-01	0.000000e+00	0.0	6.500000e-01	0.000000e+00	0.0	6.600000e-01	0.000000e+00	0.0	6.700000e-01	0.000000e+00	0.0	6.800000e-01	0.000000e+00	0.0	6.900000e-01	0.000000e+00	0.0	7.000000e-01	0.000000e+00	0.0	7.100000e-01	0.000000e+00	0.0	7.200000e-01	0.000000e+00	0.0	7.300000e-01	0.000000e+00	0.0	7.400000e-01	0.000000e+00	0.0	7.500000e-01	0.000000e+00	0.0	7.600000e-01	0.000000e+00	0.0	7.700000e-01	0.000000e+00	0.0	7.800000e-01	0.000000e+00	0.0	7.900000e-01	0.000000e+00	0.0	8.000000e-01	0.000000e+00	0.0	8.100000e-01	0.000000e+00	0.0	8.200000e-01	0.000000e+00	0.0	8.300000e-01	0.000000e+00	0.0	8.400000e-01	0.000000e+00	0.0	8.500000e-01	0.000000e+00	0.0	8.600000e-01	0.000000e+00	0.0	8.700000e-01	0.000000e+00	0.0	8.800000e-01	0.000000e+00	0.0	8.900000e-01	0.000000e+00	0.0	9.000000e-01	0.000000e+00	0.0	9.100000e-01	0.000000e+00	0.0	9.200000e-01	0.000000e+00	0.0	9.300000e-01	0.000000e+00	0.0	9.400000e-01	0.000000e+00	0.0	9.500000e-01	0.000000e+00	0.0	9.600000e-01	0.000000e+00	0.0	9.700000e-01	0.000000e+00	0.0	9.800000e-01	0.000000e+00	0.0	9.900000e-01	0.000000e+00	0.0	1.000000e+00	0.000000e+00	0.0	0.000000e+00	1.000000e-02	0.0	1.000000e-02	1.000000e-02	0.0	2.000000e-02	1.000000e-02	0.0	3.000000e-02	1.000000e-02	0.0	4.000000e-02	1.000000e-02	0.0	5.000000e-02	1.000000e-02	0.0	6.000000e-02	1.000000e-02	0.0	7.000000e-02	1.000000e-02	0.0	8.000000e-02	1.000000e-02	0.0	9.000000e-02	1.000000e-02	0.0	1.000000e-01	1.000000e-02	0.0	1.100000e-01	1.000000e-02	0.0	1.200000e-01	1.000000e-02	0.0	1.300000e-01	1.000000e-02	0.0	1.400000e-01	1.000000e-02	0.0	1.500000e-01	1.000000e-02	0.0	1.600000e-01	1.000000e-02	0.0	1.700000e-01	1.000000e-02	0.0	1.800000e-01	1.000000e-02	0.0	1.900000e-01	1.000000e-02	0.0	2.000000e-01	1.000000e-02	0.0	2.100000e-01	1.000000e-02	0.0	2.200000e-01	1.000000e-02	0.0	2.300000e-01	1.000000e-02	0.0	2.400000e-01	1.000000e-02	0.0	2.500000e-01	1.000000e-02	0.0	2.600000e-01	1.000000e-02	0.0	2.700000e-01	1.000000e-02	0.0	2.800000e-01	1.000000e-02	0.0	2.900000e-01	1.000000e-02	0.0	3.000000e-01	1.000000e-02	0.0	3.100000e-01	1.000000e-02	0.0	3.200000e-01	1.000000e-02	0.0	3.300000e-01	1.000000e-02	0.0	3.400000e-01	1.000000e-02	0.0	3.500000e-01	1.000000e-02	0.0	3.600000e-01	1.000000e-02	0.0	3.700000e-01	1.000000e-02	0.0	3.800000e-01	1.000000e-02	0.0	3.900000e-01	1.000000e-02	0.0	4.000000e-01	1.000000e-02	0.0	4.100000e-01	1.000000e-02	0.0	4.200000e-01	1.000000e-02	0.0	4.300000e-01	1.000000e-02	0.0	4.400000e-01	1.000000e-02	0.0	4.500000e-01	1.000000e-02	0.0	4.600000e-01	1.000000e-02	0.0	4.700000e-01	1.000000e-02	0.0	4.800000e-01	1.000000e-02	0.0	4.900000e-01	1.000000e-02	0.0	5.000000e-01	1.000000e-02	0.0	5.100000e-01	1.000000e-02	0.0	5.200000e-01	1.000000e-02	0.0	5.300000e-01	1.000000e-02	0.0	5.400000e-01	1.000000e-02	0.0	5.500000e-01	1.000000e-02	0.0	5.600000e-01	1.000000e-02	0.0	5.700000e-01	1.000000e-02	0.0	5.800000e-01	1.000000e-02	0.0	5.900000e-01	1.000000e-02	0.0	6.000000e-01	1.000000e-02	0.0	6.100000e-01	1.000000e-02	0.0	6.200000e-01	1.000000e-02	0.0	6.300000e-01	1.000000e-02	0.0	6.400000e-01	1.000000e-02	0.0	6.500000e-01	1.000000e-02	0.0	6.600000e-01	1.000000e-02	0.0	6.700000e-01	1.000000e-02	0.0	6.800000e-01	1.000000e-02	0.0	6.900000e-01	1.000000e-02	0.0	7.000000e-01	1.000000e-02	0.0	7.100000e-01	1.000000e-02	0.0	7.200000e-01	1.000000e-02	0.0	7.300000e-01	1.000000e-02	0.0	7.400000e-01	1.000000e-02	0.0	7.500000e-01	1.000000e-02	0.0	7.600000e-01	1.000000e-02	0.0	7.700000e-01	1.000000e-02	0.0	7.800000e-01	1.000000e-02	0.0	7.900000e-01	1.000000e-02	0.0	8.000000e-01	1.000000e-02	0.0	8.100000e-01	1.000000e-02	0.0	8.200000e-01	1.000000e-02	0.0	8.300000e-01	1.000000e-02	0.0	8.400000e-01	1.000000e-02	0.0	8.500000e-01	1.000000e-02	0.0	8.600000e-01	1.000000e-02	0.0	8.700000e-01	1.000000e-02	0.0	8.800000e-01	1.000000e-02	0.0	8.900000e-01	1.000000e-02	0.0	9.000000e-01	1.000000e-02	0.0	9.100000e-01	1.000000e-02	0.0	9.200000e-01	1.000000e-02	0.0	9.300000e-01	1.000000e-02	0.0	9.400000e-01	1.000000e-02	0.0	9.500000e-01	1.000000e-02	0.0	9.600000e-01	1.000000e-02	0.0	9.700000e-01	1.000000e-02	0.0	9.800000e-01	1.000000e-02	0.0	9.900000e-01	1.000000e-02	0.0	1.000000e+00	1.000000e-02	0.0	0.000000e+00	2.000000e-02	0.0	1.000000e-02	2.000000e-02	0.0	2.000000e-02	2.000000e-02	0.0	3.000000e-02	2.000000e-02	0.0	4.000000e-02	2.000000e-02	0.0	5.000000e-02	2.000000e-02	0.0	6.000000e-02	2.000000e-02	0.0	7.000000e-02	2.000000e-02	0.0	8.000000e-02	2.000000e-02	0.0	9.000000e-02	2.000000e-02	0.0	1.000000e-01	2.000000e-02	0.0	1.100000e-01	2.000000e-02	0.0	1.200000e-01	2.000000e-02	0.0	1.300000e-01	2.000000e-02	0.0	1.400000e-01	2.000000e-02	0.0	1.500000e-01	2.000000e-02	0.0	1.600000e-01	2.000000e-02	0.0	1.700000e-01	2.000000e-02	0.0	1.800000e-01	2.000000e-02	0.0	1.900000e-01	2.000000e-02	0.0	2.000000e-01	2.000000e-02	0.0	2.100000e-01	2.000000e-02	0.0	2.200000e-01	2.000000e-02	0.0	2.300000e-01	2.000000e-02	0.0	2.400000e-01	2.000000e-02	0.0	2.500000e-01	2.000000e-02	0.0	2.600000e-01	2.000000e-02	0.0	2.700000e-01	2.000000e-02	0.0	2.800000e-01	2.000000e-02	0.0	2.900000e-01	2.000000e-02	0.0	3.000000e-01	2.000000e-02	0.0	3.100000e-01	2.000000e-02	0.0	3.200000e-01	2.000000e-02	0.0	3.300000e-01	2.000000e-02	0.0	3.400000e-01	2.000000e-02	0.0	3.500000e-01	2.000000e-02	0.0	3.600000e-01	2.000000e-02	0.0	3.700000e-01	2.000000e-02	0.0	3.800000e-01	2.000000e-02	0.0	3.900000e-01	2.000000e-02	0.0	4.000000e-01	2.000000e-02	0.0	4.100000e-01	2.000000e-02	0.0	4.200000e-01	2.000000e-02	0.0	4.300000e-01	2.000000e-02	0.0	4.400000e-01	2.000000e-02	0.0	4.500000e-01	2.000000e-02	0.0	4.600000e-01	2.000000e-02	0.0	4.700000e-01	2.000000e-02	0.0	4.800000e-01	2.000000e-02	0.0	4.900000e-01	2.000000e-02	0.0	5.000000e-01	2.000000e-02	0.0	5.100000e-01	2.000000e-02	0.0	5.200000e-01	2.000000e-02	0.0	5.300000e-01	2.000000e-02	0.0	5.400000e-01	2.000000e-02	0.0	5.500000e-01	2.000000e-02	0.0	5.600000e-01	2.000000e-02	0.0	5.700000e-01	2.000000e-02	0.0	5.800000e-01	2.000000e-02	0.0	5.900000e-01	2.000000e-02	0.0	6.000000e-01	2.000000e-02	0.0	6.100000e-01	2.000000e-02	0.0	6.200000e-01	2.000000e-02	0.0	6.300000e-01	2.000000e-02	0.0	6.400000e-01	2.000000e-02	0.0	6.500000e-01	2.000000e-02	0.0	6.600000e-01	2.000000e-02	0.0	6.700000e-01	2.000000e-02	0.0	6.800000e-01	2.000000e-02	0.0	6.900000e-01	2.000000e-02	0.0	7.000000e-01	2.000000e-02	0.0	7.100000e-01	2.000000e-02	0.0	7.200000e-01	2.000000e-02	0.0	7.300000e-01	2.000000e-02	0.0	7.400000e-01	2.000000e-02	0.0	7.500000e-01	2.000000e-02	0.0	7.600000e-01	2.000000e-02	0.0	7.700000e-01	2.000000e-02	0.0	7.800000e-01	2.000000e-02	0.0	7.900000e-01	2.000000e-02	0.0	8.000000e-01	2.000000e-02	0.0	8.100000e-01	2.000000e-02	0.0	8.200000e-01	2.000000e-02	0.0	8.300000e-01	2.000000e-02	0.0	8.400000e-01	2.000000e-02	0.0	8.500000e-01	2.000000e-02	0.0	8.600000e-01	2.000000e-02	0.0	8.700000e-01	2.000000e-02	0.0	8.800000e-01	2.000000e-02	0.0	8.900000e-01	2.000000e-02	0.0	9.000000e-01	2.000000e-02	0.0	9.100000e-01	2.000000e-02	0.0	9.200000e-01	2.000000e-02	0.0	9.300000e-01	2.000000e-02	0.0	9.400000e-01	2.000000e-02	0.0	9.500000e-01	2.000000e-02	0.0	9.600000e-01	2.000000e-02	0.0	9.700000e-01	2.000000e-02	0.0	9.800000e-01	2.000000e-02	0.0	9.900000e-01	2.000000e-02	0.0	1.000000e+00	2.000000e-02	0.0	0.000000e+00	3.000000e-02	0.0	1.000000e-02	3.000000e-02	0.0	2.000000e-02	3.000000e-02	0.0	3.000000e-02	3.000000e-02	0.0	4.000000e-02	3.000000e-02	0.0	5.000000e-02	3.000000e-02	0.0	6.000000e-02	3.000000e-02	0.0	7.000000e-02	3.000000e-02	0.0	8.000000e-02	3.000000e-02	0.0	9.000000e-02	3.000000e-02	0.0	1.000000e-01	3.000000e-02	0.0	1.100000e-01	3.000000e-02	0.0	1.200000e-01	3.000000e-02	0.0	1.300000e-01	3.000000e-02	0.0	1.400000e-01	3.000000e-02	0.0	1.500000e-01	3.000000e-02	0.0	1.600000e-01	3.000000e-02	0.0	1.700000e-01	3.000000e-02	0.0	1.800000e-01	3.000000e-02	0.0	1.900000e-01	3.000000e-02	0.0	2.000000e-01	3.000000e-02	0.0	2.100000e-01	3.000000e-02	0.0	2.200000e-01	3.000000e-02	0.0	2.300000e-01	3.000000e-02	0.0	2.400000e-01	3.000000e-02	0.0	2.500000e-01	3.000000e-02	0.0	2.600000e-01	3.000000
[...]
POINT_DATA 10201

SCALARS Height double 1
LOOKUP_TABLE default
9.992342e-01	9.992627e-01	9.992527e-01	9.992491e-01	9.992483e-01	9.992483e-01	9.992458e-01	9.992376e-01	9.992286e-01	9.992208e-01	9.992142e-01	9.992103e-01	9.992093e-01	9.992101e-01	9.992109e-01	9.992107e-01	9.992103e-01	9.992119e-01	9.992157e-01	9.992168e-01	9.992153e-01	9.992013e-01	9.991878e-01	9.991739e-01	9.991641e-01	9.991597e-01	9.991525e-01	9.991430e-01	9.991324e-01	9.991219e-01	9.991122e-01	9.991034e-01	9.990959e-01	9.990902e-01	9.990851e-01	9.990782e-01	9.990676e-01	9.990533e-01	9.990367e-01	9.990193e-01	9.990028e-01	9.989876e-01	9.989732e-01	9.989591e-01	9.989443e-01	9.989282e-01	9.989104e-01	9.988904e-01	9.988678e-01	9.988419e-01	9.988129e-01	9.987841e-01	9.987590e-01	9.987383e-01	9.987455e-01	9.988510e-01	9.992565e-01	1.000431e+00	1.003093e+00	1.007565e+00	1.012875e+00	1.016860e+00	1.018589e+00	1.018829e+00	1.018365e+00	1.017004e+00	1.014479e+00	1.010730e+00	1.006227e+00	1.001572e+00	9.972095e-01	9.934287e-01	9.904417e-01	9.883595e-01	9.871219e-01	9.865040e-01	9.860776e-01	9.856604e-01	9.852950e-01	9.850646e-01	9.849958e-01	9.850961e-01	9.853508e-01	9.857201e-01	9.861279e-01	9.865543e-01	9.872453e-01	9.886064e-01	9.908243e-01	9.939111e-01	9.977205e-01	1.002023e+00	1.006527e+00	1.010788e+00	1.014257e+00	1.016594e+00	1.018164e+00	1.019601e+00	1.021835e+00	1.023880e+00	1.026915e+00	9.992367e-01	9.992661e-01	9.992344e-01	9.992335e-01	9.992352e-01	9.992363e-01	9.992348e-01	9.992311e-01	9.992288e-01	9.992239e-01	9.992188e-01	9.992140e-01	9.992098e-01	9.992073e-01	9.992067e-01	9.992074e-01	9.992068e-01	9.992038e-01	9.991985e-01	9.991888e-01	9.991819e-01	9.991735e-01	9.991723e-01	9.991652e-01	9.991566e-01	9.991515e-01	9.991413e-01	9.991308e-01	9.991210e-01	9.991127e-01	9.991061e-01	9.991009e-01	9.990960e-01	9.990910e-01	9.990840e-01	9.990748e-01	9.990626e-01	9.990470e-01	9.990293e-01	9.990109e-01	9.989936e-01	9.989770e-01	9.989615e-01	9.989466e-01	9.989311e-01	9.989147e-01	9.988966e-01	9.988763e-01	9.988533e-01	9.988264e-01	9.987962e-01	9.987666e-01	9.987405e-01	9.987161e-01	9.987010e-01	9.987443e-01	9.990316e-01	1.000086e+00	1.002857e+00	1.007732e+00	1.013123e+00	1.016902e+00	1.018501e+00	1.018745e+00	1.018510e+00	1.017260e+00	1.014560e+00	1.010685e+00	1.006131e+00	1.001444e+00	9.970448e-01	9.932410e-01	9.902674e-01	9.882518e-01	9.871009e-01	9.864789e-01	9.860077e-01	9.855143e-01	9.851634e-01	9.850094e-01	9.849771e-01	9.850281e-01	9.852099e-01	9.855831e-01	9.860703e-01	9.865343e-01	9.872122e-01	9.884869e-01	9.906481e-01	9.937320e-01	9.975677e-01	1.001905e+00	1.006436e+00	1.010750e+00	1.014338e+00	1.016803e+00	1.018087e+00	1.019250e+00	1.021644e+00	1.024056e+00	1.027426e+00	9.992272e-01	9.992544e-01	9.992275e-01	9.992283e-01	9.992294e-01	9.992301e-01	9.992292e-01	9.992259e-01	9.992220e-01	9.992183e-01	9.992145e-01	9.992108e-01	9.992072e-01	9.992041e-01	9.992018e-01	9.992001e-01	9.991984e-01	9.991967e-01	9.991949e-01	9.991898e-01	9.991842e-01	9.991759e-01	9.991671e-01	9.991591e-01	9.991493e-01	9.991425e-01	9.991360e-01	9.991284e-01	9.991204e-01	9.991127e-01	9.991055e-01	9.990991e-01	9.990933e-01	9.990871e-01	9.990795e-01	9.990697e-01	9.990572e-01	9.990420e-01	9.990244e-01	9.990060e-01	9.989878e-01	9.989704e-01	9.989540e-01	9.989382e-01	9.989224e-01	9.989058e-01	9.988881e-01	9.988684e-01	9.988455e-01	9.988183e-01	9.987879e-01	9.987585e-01	9.987314e-01	9.987056e-01	9.986905e-01	9.987337e-01	9.990140e-01	1.000091e+00	1.002969e+00	1.007903e+00	1.013157e+00	1.016726e+00	1.018260e+00	1.018543e+00	1.018380e+00	1.017296e+00	1.014527e+00	1.010583e+00	1.006119e+00	1.001522e+00	9.971612e-01	9.933680e-01	9.904062e-01	9.883760e-01	9.871740e-01	9.865159e-01	9.860244e-01	9.854854e-01	9.851128e-01	9.850082e-01	9.850086e-01	9.850166e-01	9.851579e-01	9.855657e-01	9.860921e-01	9.865807e-01	9.872990e-01	9.886142e-01	9.907780e-01	9.938440e-01	9.976680e-01	1.001967e+00	1.006407e+00	1.010645e+00	1.014316e+00	1.016817e+00	1.017935e+00	1.019053e+00	1.021470e+00	1.024054e+00	1.027468e+00	9.992235e-01	9.992484e-01	9.992229e-01	9.992232e-01	9.992238e-01	9.992243e-01	9.992239e-01	9.992218e-01	9.992193e-01	9.992171e-01	9.992146e-01	9.992120e-01	9.992091e-01	9.992064e-01	9.992041e-01	9.992024e-01	9.992016e-01	9.992004e-01	9.991983e-01	9.991922e-01	9.991865e-01	9.991789e-01	9.991714e-01	9.991631e-01	9.991527e-01	9.991442e-01	9.991374e-01	9.991299e-01	9.991221e-01	9.991140e-01	9.991061e-01	9.990990e-01	9.990928e-01	9.990859e-01	9.990776e-01	9.990671e-01	9.990542e-01	9.990391e-01	9.990219e-01	9.990035e-01	9.989850e-01	9.989672e-01	9.989503e-01	9.989342e-01	9.989185e-01	9.989022e-01	9.988849e-01	9.988658e-01	9.988434e-01	9.988162e-01	9.987853e-01	9.987553e-01	9.987280e-01	9.987011e-01	9.986820e-01	9.987123e-01	9.989733e-01	1.000051e+00	1.002983e+00	1.007965e+00	1.013167e+00	1.016625e+00	1.018089e+00	1.018372e+00	1.018236e+00	1.017302e+00	1.014633e+00	1.010614e+00	1.006133e+00	1.001600e+00	9.972821e-01	9.934986e-01	9.905191e-01	9.884606e-01	9.872323e-01	9.865562e-01	9.860521e-01	9.854850e-01	9.850459e-01	9.849275e-01	9.849454e-01	9.849340e-01	9.851013e-01	9.855744e-01	9.861244e-01	9.866271e-01	9.873658e-01	9.887035e-01	9.908866e-01	9.939611e-01	9.977733e-01	1.002028e+00	1.006415e+00	1.010686e+00	1.014421e+00	1.016787e+00	1.017756e+00	1.018854e+00	1.021318e+00	1.024016e+00	1.027459e+00	9.992189e-01	9.992427e-01	9.992172e-01	9.992176e-01	9.992179e-01	9.992186e-01	9.992185e-01	9.992173e-01	9.992155e-01	9.992138e-01	9.992121e-01	9.992105e-01	9.992084e-01	9.992057e-01	9.992022e-01	9.991986e-01	9.991960e-01	9.991932e-01	9.991908e-01	9.991864e-01	9.991813e-01	9.991736e-01	9.991647e-01	9.991565e-01	9.991473e-01	9.991400e-01	9.991340e-01	9.991274e-01	9.991197e-01	9.991112e-01	9.991028e-01	9.990955e-01	9.990892e-01	9.990826e-01	9.990746e-01	9.990641e-01	9.990509e-01	9.990352e-01	9.990176e-01	9.989987e-01	9.989796e-01	9.989613e-01	9.989440e-01	9.989276e-01	9.989116e-01	9.988953e-01	9.988781e-01	9.988592e-01	9.988370e-01	9.988100e-01	9.987789e-01	9.987488e-01	9.987210e-01	9.986934e-01	9.986726e-01	9.986976e-01	9.989490e-01	1.000027e+00	1.002985e+00	1.007979e+00	1.013121e+00	1.016483e+00	1.017887e+00	1.018156e+00	1.018032e+00	1.017207e+00	1.014699e+00	1.010694e+00	1.006171e+00	1.001677e+00	9.974184e-01	9.936646e-01	9.906796e-01	9.885902e-01	9.873193e-01	9.865957e-01	9.860696e-01	9.854781e-01	9.849650e-01	9.847797e-01	9.847857e-01	9.847947e-01	9.850364e-01	9.855755e-01	9.861469e-01	9.866742e-01	9.874610e-01	9.888369e-01	9.910421e-01	9.941129e-01	9.978879e-01	1.002086e+00	1.006450e+00	1.010771e+00	1.014468e+00	1.016662e+00	1.017534e+00	1.018638e+00	1.021137e+00	1.023902e+00	1.027347e+00	9.992152e-01	9.992375e-01	9.992134e-01	9.992135e-01	9.992143e-01	9.992156e-01	9.992161e-01	9.992152e-01	9.992134e-01	9.992118e-01	9.992103e-01	9.992090e-01	9.992073e-01	9.992047e-01	9.992008e-01	9.991961e-01	9.991910e-01	9.991881e-01	9.991846e-01	9.991813e-01	9.991769e-01	9.991690e-01	9.991612e-01	9.991525e-01	9.991438e-01	9.991383e-01	9.991323e-01	9.991254e-01	9.991171e-01	9.991084e-01	9.991003e-01	9.990934e-01	9.990875e-01	9.990812e-01	9.990734e-01	9.990630e-01	9.990497e-01	9.990333e-01	9.990148e-01	9.989952e-01	9.989757e-01	9.989570e-01	9.989396e-01	9.989230e-01	9.989067e-01	9.988901e-01	9.988725e-01	9.988535e-01	9.988313e-01	9.988043e-01	9.987732e-01	9.987430e-01	9.987153e-01	9.986872e-01	9.986652e-01	9.986898e-01	9.989415e-01	1.000020e+00	1.002975e+00	1.007936e+00	1.013009e+00	1.016307e+00	1.017673e+00	1.017929e+00	1.017806e+00	1.017068e+00	1.014732e+00	1.010817e+00	1.006270e+00	1.001772e+00	9.975734e-01	9.938626e-01	9.908785e-01	9.887584e-01	9.874328e-01	9.866524e-01	9.860918e-01	9.854676e-01	9.848756e-01	9.845824e-01	9.845464e-01	9.846152e-01	9.849658e-01	9.855740e-01	9.861714e-01	9.867413e-01	9.875819e-01	9.890089e-01	9.912373e-01	9.942979e-01	9.980233e-01	1.002170e+00	1.006546e+00	1.010889e+00	1.014476e+00	1.016501e+00	1.017315e+00	1.018433e+00	1.020943e+00	1.023709e+00	1.027109e+00	9.992130e-01	9.992334e-01	9.992132e-01	9.992130e-01	9.992134e-01	9.992150e-01	9.992159e-01	9.992154e-01	9.992143e-01	9.992121e-01	9.992101e-01	9.992083e-01	9.992061e-01	9.992033e-01	9.991996e-01	9.991949e-01	9.991898e-01	9.991859e-01	9.991817e-01	9.991784e-01	9.991741e-01	9.991663e-01	9.991603e-01	9.991513e-01	9.991434e-01	9.991371e-01	9.991304e-01	9.991222e-01	9.991136e-01	9.991052e-01	9.990978e-01	9.990921e-01	9.990866e-01	9.990806e-01	9.990727e-01	9.990624e-01	9.990489e-01	9.990323e-01	9.990135e-01	9.989936e-01	9.989740e-01	9.989555e-01	9.989383e-01	9.989218e-01	9.989056e-01	9.988891e-01	9.988714e-01	9.988519e-01	9.988300e-01	9.988030e-01	9.987717e-01	9.987414e-01	9.987130e-01	9.986843e-01	9.986627e-01	9.986907e-01	9.989514e-01	1.000037e+00	1.002963e+00	1.007844e+00	1.012831e+00	1.016084e+00	1.017438e+00	1.017694e+00	1.017577e+00	1.016911e+00	1.014757e+00	1.010985e+00	1.006450e+00	1.001938e+00	9.977726e-01	9.941009e-01	9.911202e-01	9.889660e-01	9.875820e-01	9.867444e-01	9.861315e-01	9.854745e-01	9.847945e-01	9.843717e-01	9.842790e-01	9.844250e-01	9.849036e-01	9.855870e-01	9.862159e-01	9.868398e-01	9.877390e-01	9.892200e-01	9.914770e-01	9.945266e-01	9.982069e-01	1.002321e+00	1.006720e+00	1.011038e+00	1.014472e+00	1.016327e+00	1.017103e+00	1.018241e+00	1.020729e+00	1.023423e+00	1.026728e+00	9.992114e-01	9.992294e-01	9.992133e-01	9.992133e-01	9.992137e-01	9.992153e-01	9.992159e-01	9.992158e-01	9.992152e-01	9.992141e-01	9.992114e-01	9.992086e-01	9.992058e-01	9.992028e-01	9.991994e-01	9.991953e-01	9.991916e-01	9.991869e-01	9.991838e-01	9.991787e-01	9.991744e-01	9.991671e-01	9.991616e-01	9.991533e-01	9.991457e-01	9.991379e-01	9.991298e-01	9.991208e-01	9.991120e-01	9.991040e-01	9.990977e-01	9.990918e-01	9.990856e-01	9.990792e-01	9.990713e-01	9.990609e-01	9.990475e-01	9.990309e-01	9.990121e-01	9.989923e-01	9.989728e-01	9.989545e-01	9.989374e-01	9.989212e-01	9.989053e-01	9.988889e-01	9.988714e-01	9.988519e-01	9.988300e-01	9.988033e-01	9.987724e-01	9.987422e-01	9.987126e-01	9.986837e-01	9.986645e-01	9.986995e-01	9.989779e-01	1.000079e+00	1.002958e+00	1.007711e+00	1.012587e+00	1.015806e+00	1.017174e+00	1.017446e+00	1.017338e+00	1.016747e+00	1.014785e+00	1.011193e+00	1.006722e+00	1.002202e+00	9.980369e-01	9.943883e-01	9.914063e-01	9.892106e-01	9.877617e-01	9.868530e-01	9.861915e-01	9.854998e-01	9.847309e-01	9.841657e-01	9.840080e-01	9.842407e-01	9.848570e-01	9.856167e-01	9.862812e-01	9.869550e-01	9.879259e-01	9.894696e-01	9.917629e-01	9.948066e-01	9.984600e-01	1.002574e+00	1.006975e+00	1.011218e+00	1.014470e+00	1.016159e+00	1.016896e+00	1.018053e+00	1.020486e+00	1.023041e+00	1.026202e+00	9.992088e-01	9.992269e-01	9.992138e-01	9.992146e-01	9.992146e-01	9.992156e-01	9.992169e-01	9.992162e-01	9.992149e-01	9.992136e-01	9.992119e-01	9.992091e-01	9.992055e-01	9.992023e-01	9.991992e-01	9.991961e-01	9.991926e-01	9.991898e-01	9.991842e-01	9.991797e-01	9.991750e-01	9.991687e-01	9.991625e-01	9.991545e-01	9.991485e-01	9.991400e-01	9.991312e-01	9.991220e-01	9.991133e-01	9.991054e-01	9.990984e-01	9.990911e-01	9.990848e-01	9.990781e-01	9.990695e-01	9.990588e-01	9.990454e-01	9.990291e-01	9.990106e-01	9.989911e-01	9.989718e-01	9.989534e-01	9.989363e-01	9.989201e-01	9.989042e-01	9.988881e-01	9.988708e-01	9.988514e-01	9.988290e-01	9.988021e-01	9.987715e-01	9.987412e-01	9.987112e-01	9.986820e-01	9.986654e-01	9.987108e-01	9.990123e-01	1.000135e+00	1.002961e+00	1.007548e+00	1.012280e+00	1.015468e+00	1.016866e+00	1.017168e+00	1.017076e+00	1.016569e+00	1.014806e+00	1.011419e+00	1.007049e+00	1.002540e+00	9.983678e-01	9.947250e-01	9.917317e-01	9.894863e-01	9.879639e-01	9.869776e-01	9.862559e-01	9.855241e-01	9.846724e-01	9.839569e-01	9.837240e-01	9.840545e-01	9.848133e-01	9.856446e-01	9.863517e-01	9.870896e-01	9.881379e-01	9.897525e-01	9.920887e-01	9.951361e-01	9.987798e-01	1.002897e+00	1.007280e+00	1.011412e+00	1.014460e+00	1.015978e+00	1.016678e+00	1.017852e+00	1.020204e+00	1.022575e+00	1.025550e+00	9.992078e-01	9.992236e-01	9.992143e-01	9.992157e-01	9.992153e-01	9.992155e-01	9.992164e-01	9.992163e-01	9.992147e-01	9.992126e-01	9.992102e-01	9.992077e-01	9.992049e-01	9.992013e-01	9.991983e-01	9.991953e-01	9.991919e-01	9.991886e-01	9.991836e-01	9.991779e-01	9.991730e-01	9.991668e-01	9.991610e-01	9.991557e-01	9.991483e-01	9.991412e-01	9.991328e-01	9.991239e-01	9.991152e-01	9.991067e-01	9.990984e-01	9.990909e-01	9.990836e-01	9.990760e-01	9.990667e-01	9.990557e-01	9.990421e-01	9.990259e-01	9.990078e-01	9.989887e-01	9.989697e-01	9.989514e-01	9.989342e-01	9.989178e-01	9.989020e-01	9.988860e-01	9.988688e-01	9.988494e-01	9.988265e-01	9.987992e-01	9.987685e-01	9.987380e-01	9.987079e-01	9.986781e-01	9.986640e-01	9.987228e-01	9.990541e-01	1.000202e+00	1.002965e+00	1.007365e+00	1.011926e+00	1.015072e+00	1.016507e+00	1.016848e+00	1.016776e+00	1.016356e+00	1.014797e+00	1.011640e+00	1.007401e+00	1.002926e+00	9.987513e-01	9.951039e-01	9.920914e-01	9.897899e-01	9.881822e-01	9.871066e-01	9.863079e-01	9.855254e-01	9.845978e-01	9.837323e-01	9.834156e-01	9.838531e-01	9.847517e-01	9.856507e-01	9.864124e-01	9.872323e-01	9.883693e-01	9.900644e-01	9.924475e-01	9.955054e-01	9.991489e-01	1.003264e+00	1.007605e+00	1.011596e+00	1.014417e+00	1.015765e+00	1.016435e+00	1.017626e+00	1.019875e+00	1.022039e+00	1.024799e+00	9.992063e-01	9.992195e-01	9.992128e-01	9.992147e-01	9.992139e-01	9.992139e-01	9.992143e-01	9.992149e-01	9.992134e-01	9.992109e-01	9.992077e-01	9.992047e-01	9.992015e-01	9.991988e-01	9.991958e-01	9.991931e-01	9.991897e-01	9.991860e-01	9.991814e-01	9.991749e-01	9.991689e-01	9.991634e-01	9.991589e-01	9.991521e-01	9.991464e-01	9.991398e-01	9.991320e-01	9.991235e-01	9.991149e-01	9.991062e-01	9.990978e-01	9.990896e-01	9.990816e-01	9.990734e-01	9.990633e-01	9.990517e-01	9.990376e-01	9.990213e-01	9.990033e-01	9.989846e-01	9.989659e-01	9.989478e-01	9.989304e-01	9.989139e-01	9.988979e-01	9.988819e-01	9.988649e-01	9.988456e-01	9.988225e-01	9.987946e-01	9.987638e-01	9.987331e-01	9.987030e-01	9.986732e-01	9.986624e-01	9.987363e-01	9.991020e-01	1.000277e+00	1.002971e+00	1.007166e+00	1.011536e+00	1.014628e+00	1.016100e+00	1.016483e+00	1.016431e+00	1.016091e+00	1.014741e+00	1.011835e+00	1.007760e+00	1.003345e+00	9.991776e-01	9.955236e-01	9.924883e-01	9.901258e-01	9.884212e-01	9.872387e-01	9.863431e-01	9.854869e-01	9.844909e-01	9.834940e-01	9.830961e-01	9.836359e-01	9.846569e-01	9.856206e-01	9.864628e-01	9.873814e-01	9.886236e-01	9.904075e-01	9.928402e-01	9.959127e-01	9.995582e-01	1.003662e+00	1.007932e+00	1.011748e+00	1.014323e+00	1.015506e+00	1.016158e+00	1.017365e+00	1.019502e+00	1.021449e+00	1.023978e+00	9.992045e-01	9.992156e-01	9.992094e-01	9.992120e-01	9.992111e-01	9.992109e-01	9.992112e-01	9.992118e-01	9.992114e-01	9.992086e-01	9.992051e-01	9.992015e-01	9.991985e-01	9.991958e-01	9.991935e-01	9.991909e-01	9.991875e-01	9.991834e-01	9.991774e-01	9.991707e-01	9.991642e-01	9.991585e-01	9.991537e-01	9.991486e-01	9.991429e-01	9.991367e-01	9.991292e-01	9.991210e-01	9.991127e-01	9.991040e-01	9.990957e-01	9.990876e-01	9.990792e-01	9.990704e-01	9.990595e-01	9.990471e-01	9.990324e-01	9.990158e-01	9.989979e-01	9.989795e-01	9.989612e-01	9.989431e-01	9.989256e-01	9.989088e-01	9.988926e-01	9.988765e-01	9.988595e-01	9.988402e-01	9.988168e-01	9.987886e-01	9.987576e-01	9.987271e-01	9.986971e-01	9.986683e-01	9.986621e-01	9.987526e-01	9.991562e-01	1.000362e+00	1.002978e+00	1.006957e+00	1.011121e+00	1.014147e+00	1.015653e+00	1.016081e+00	1.016048e+00	1.015774e+00	1.014632e+00	1.011996e+00	1.008117e+00	1.003790e+00	9.996462e-01	9.959904e-01	9.929306e-01	9.905023e-01	9.886903e-01	9.873839e-01	9.863694e-01	9.854131e-01	9.843492e-01	9.832640e-01	9.828071e-01	9.834215e-01	9.845261e-01	9.855621e-01	9.865096e-01	9.875479e-01	9.889089e-01	9.907890e-01	9.932744e-01	9.963641e-01	1.000009e+00	1.004084e+00	1.008253e+00	1.011859e+00	1.014179e+00	1.015201e+00	1.015853e+00	1.017076e+00	1.019091e+00	1.020819e+00	1.023108e+00	9.992019e-01	9.992122e-01	9.992054e-01	9.992086e-01	9.992076e-01	9.992072e-01	9.992073e-01	9.992080e-01	9.992077e-01	9.992059e-01	9.992019e-01	9.991983e-01	9.991947e-01	9.991930e-01	9.991911e-01	9.991887e-01	9.991852e-01	9.991806e-01	9.991741e-01	9.991669e-01	9.991600e-01	9.991545e-01	9.991498e-01	9.991448e-01	9.991393e-01	9.991330e-01	9.991255e-01	9.991176e-01	9.991091e-01	9.991011e-01	9.990928e-01	9.990849e-01	9.990763e-01	9.990666e-01	9.990550e-01	9.990417e-01	9.990265e-01	9.990099e-01	9.989923e-01	9.989744e-01	9.989565e-01	9.989386e-01	9.989210e-01	9.989039e-01	9.988873e-01	9.988708e-01	9.988536e-01	9.988340e-01	9.988102e-01	9.987814e-01	9.987502e-01	9.987202e-01	9.986908e-01	9.986633e-01	9.986626e-01	9.987719e-01	9.992167e-01	1.000453e+00	1.002989e+00	1.006741e+00	1.010686e+00	1.013634e+00	1.015171e+00	1.015648e+00	1.015637e+00	1.015419e+00	1.014474e+00	1.012119e+00	1.008463e+00	1.004254e+00	1.000156e+00	9.965086e-01	9.934245e-01	9.909248e-01	9.889963e-01	9.875502e-01	9.863983e-01	9.853196e-01	9.841821e-01	9.830726e-01	9.826011e-01	9.832355e-01	9.843680e-01	9.854900e-01	9.865637e-01	9.877384e-01	9.892314e-01	9.912149e-01	9.937580e-01	9.968646e-01	1.000499e+00	1.004525e+00	1.008563e+00	1.011928e+00	1.013979e+00	1.014862e+00	1.015526e+00	1.016762e+00	1.018647e+00	1.020158e+00	1.022204e+00	9.991995e-01	9.992096e-01	9.992015e-01	9.992052e-01	9.992041e-01	9.992034e-01	9.992031e-01	9.992037e-01	9.992035e-01	9.992019e-01	9.991985e-01	9.991951e-01	9.991925e-01	9.991895e-01	9.991884e-01	9.991863e-01	9.991823e-01	9.991770e-01	9.991698e-01	9.991621e-01	9.991547e-01	9.991498e-01	9.991458e-01	9.991412e-01	9.991357e-01	9.991296e-01	9.991218e-01	9.991138e-01	9.991058e-01	9.990976e-01	9.990900e-01	9.990818e-01	9.990724e-01	9.990620e-01	9.990495e-01	9.990354e-01	9.990199e-01	9.990035e-01	9.989866e-01	9.989694e-01	9.989521e-01	9.989345e-01	9.989170e-01	9.988997e-01	9.988827e-01	9.988658e-01	9.988480e-01	9.988278e-01	9.988032e-01	9.987735e-01	9.987422e-01	9.987128e-01	9.986842e-01	9.986574e-01	9.986626e-01	9.987938e-01	9.992827e-01	1.000549e+00	1.003002e+00	1.006525e+00	1.010238e+00	1.013093e+00	1.014655e+00	1.015187e+00	1.015202e+00	1.015031e+00	1.014268e+00	1.012203e+00	1.008794e+00	1.004727e+00	1.000699e+00	9.970748e-01	9.939698e-01	9.913942e-01	9.893396e-01	9.877392e-01	9.864299e-01	9.852153e-01	9.840012e-01	9.829419e-01	9.825166e-01	9.830910e-01	9.841984e-01	9.854108e-01	9.866241e-01	9.879536e-01	9.895925e-01	9.916880e-01	9.942927e-01	9.974115e-01	1.001020e+00	1.004973e+00	1.008850e+00	1.011951e+00	1.013734e+00	1.014495e+00	1.015182e+00	1.016421e+00	1.018173e+00	1.019473e+00	1.021280e+00	9.991974e-01	9.992079e-01	9.991981e-01	9.992018e-01	9.992003e-01	9.991993e-01	9.991986e-01	9.991991e-01	9.991990e-01	9.991976e-01	9.991949e-01	9.991925e-01	9.991904e-01	9.991880e-01	9.991847e-01	9.991826e-01	9.991789e-01	9.991724e-01	9.991649e-01	9.991567e-01	9.991493e-01	9.991449e-01	9.991416e-01	9.991374e-01	9.991324e-01	9.991256e-01	9.991181e-01	9.991100e-01	9.991029e-01	9.990955e-01	9.990870e-01	9.990782e-01	9.990682e-01	9.990568e-01	9.990434e-01	9.990286e-01	9.990128e-01	9.989967e-01	9.989804e-01	9.989640e-01	9.989472e-01	9.989301e-01	9.989128e-01	9.988955e-01	9.988782e-01	9.988609e-01	9.988425e-01	9.988217e-01	9.987961e-01	9.987656e-01	9.987342e-01	9.987051e-01	9.986763e-01	9.986505e-01	9.986629e-01	9.988177e-01	9.993523e-01	1.000649e+00	1.003020e+00	1.006314e+00	1.009784e+00	1.012528e+00	1.014107e+00	1.014695e+00	1.014744e+00	1.014611e+00	1.014012e+00	1.012232e+00	1.009094e+00	1.005202e+00	1.001267e+00	9.976805e-01	9.945599e-01	9.919079e-01	9.897193e-01	9.879480e-01	9.864612e-01	9.850974e-01	9.838254e-01	9.828775e-01	9.825570e-01	9.829986e-01	9.840264e-01	9.853209e-01	9.866877e-01	9.881918e-01	9.899922e-01	9.922072e-01	9.948736e-01	9.979977e-01	1.001563e+00	1.005415e+00	1.009105e+00	1.011920e+00	1.013443e+00	1.014101e+00	1.014818e+00	1.016052e+00	1.017670e+00	1.018775e+00	1.020351e+00	9.991966e-01	9.992076e-01	9.991949e-01	9.991985e-01	9.991966e-01	9.991955e-01	9.991945e-01	9.991945e-01	9.991946e-01	9.991935e-01	9.991914e-01	9.991898e-01	9.991880e-01	9.991858e-01	9.991824e-01	9.991774e-01	9.991732e-01	9.991673e-01	9.991588