# vtk DataFile Version 3.0
vtk output
ASCII
DATASET STRUCTURED_GRID
DIMENSIONS 101 101 1
POINTS 10201 double
0.000000e+00	0.000000e+00	0.0	1.000000e-02	0.000000e+00	0.0	2.000000e-02	0.000000e+00	0.0	3.000000e-02	0.000000e+00	0.0	4.000000e-02	0.000000e+00	0.0	5.000000e-02	0.000000e+00	0.0	6.000000e-02	0.000000e+00	0.0	7.000000e-02	0.000000e+00	0.0	8.000000e-02	0.000000e+00	0.0	9.000000e-02	0.000000e+00	0.0	1.000000e-01	0.000000e+00	0.0	1.100000e-01	0.000000e+00	0.0	1.200000e-01	0.000000e+00	0.0	1.300000e-01	0.000000e+00	0.0	1.400000e-01	0.000000e+00	0.0	1.500000e-01	0.000000e+00	0.0	1.600000e-01	0.000000e+00	0.0	1.700000e-01	0.000000e+00	0.0	1.800000e-01	0.000000e+00	0.0	1.900000e-01	0.000000e+00	0.0	2.000000e-01	0.000000e+00	0.0	2.100000e-01	0.000000e+00	0.0	2.200000e-01	0.000000e+00	0.0	2.300000e-01	0.000000e+00	0.0	2.400000e-01	0.000000e+00	0.0	2.500000e-01	0.000000e+00	0.0	2.600000e-01	0.000000e+00	0.0	2.700000e-01	0.000000e+00	0.0	2.800000e-01	0.000000e+00	0.0	2.900000e-01	0.000000e+00	0.0	3.000000e-01	0.000000e+00	0.0	3.100000e-01	0.000000e+00	0.0	3.200000e-01	0.000000e+00	0.0	3.300000e-01	0.000000e+00	0.0	3.400000e-01	0.000000e+00	0.0	3.500000e-01	0.000000e+00	0.0	3.600000e-01	0.000000e+00	0.0	3.700000e-01	0.000000e+00	0.0	3.800000e-01	0.000000e+00	0.0	3.900000e-01	0.000000e+00	0.0	4.000000e-01	0.000000e+00	0.0	4.100000e-01	0.000000e+00	0.0	4.200000e-01	0.000000e+00	0.0	4.300000e-01	0.000000e+00	0.0	4.400000e-01	0.000000e+00	0.0	4.500000e-01	0.000000e+00	0.0	4.600000e-01	0.000000e+00	0.0	4.700000e-01	0.000000e+00	0.0	4.800000e-01	0.000000e+00	0.0	4.900000e-01	0.000000e+00	0.0	5.000000e-01	0.000000e+00	0.0	5.100000e-01	0.000000e+00	0.0	5.200000e-01	0.000000e+00	0.0	5.300000e-01	0.000000e+00	0.0	5.400000e-01	0.000000e+00	0.0	5.500000e-01	0.000000e+00	0.0	5.600000e-01	0.000000e+00	0.0	5.700000e-01	0.000000e+00	0.0	5.800000e-01	0.000000e+00	0.0	5.900000e-01	0.000000e+00	0.0	6.000000e-01	0.000000e+00	0.0	6.100000e-01	0.000000e+00	0.0	6.200000e-01	0.000000e+00	0.0	6.300000e-01	0.000000e+00	0.0	6.400000e-01	0.000000e+00	0.0	6.500000e-01	0.000000e+00	0.0	6.600000e-01	0.000000e+00	0.0	6.700000e-01	0.000000e+00	0.0	6.800000e-01	0.000000e+00	0.0	6.900000e-01	0.000000e+00	0.0	7.000000e-01	0.000000e+00	0.0	7.100000e-01	0.000000e+00	0.0	7.200000e-01	0.000000e+00	0.0	7.300000e-01	0.000000e+00	0.0	7.400000e-01	0.000000e+00	0.0	7.500000e-01	0.000000e+00	0.0	7.600000e-01	0.000000e+00	0.0	7.700000e-01	0.000000e+00	0.0	7.800000e-01	0.000000e+00	0.0	7.900000e-01	0.000000e+00	0.0	8.000000e-01	0.000000e+00	0.0	8.100000e-01	0.000000e+00	0.0	8.200000e-01	0.000000e+00	0.0	8.300000e-01	0.000000e+00	0.0	8.400000e-01	0.000000e+00	0.0	8.500000e-01	0.000000e+00	0.0	8.600000e-01	0.000000e+00	0.0	8.700000e-01	0.000000e+00	0.0	8.800000e-01	0.000000e+00	0.0	8.900000e-01	0.000000e+00	0.0	9.000000e-01	0.000000e+00	0.0	9.100000e-01	0.000000e+00	0.0	9.200000e-01	0.000000e+00	0.0	9.300000e-01	0.000000e+00	0.0	9.400000e-01	0.000000e+00	0.0	9.500000e-01	0.000000e+00	0.0	9.600000e-01	0.000000e+00	0.0	9.700000e-01	0.000000e+00	0.0	9.800000e-01	0.000000e+00	0.0	9.900000e-01	0.000000e+00	0.0	1.000000e+00	0.000000e+00	0.0	0.000000e+00	1.000000e-02	0.0	1.000000e-02	1.000000e-02	0.0	2.000000e-02	1.000000e-02	0.0	3.000000e-02	1.000000e-02	0.0	4.000000e-02	1.000000e-02	0.0	5.000000e-02	1.000000e-02	0.0	6.000000e-02	1.000000e-02	0.0	7.000000e-02	1.000000e-02	0.0	8.000000e-02	1.000000e-02	0.0	9.000000e-02	1.000000e-02	0.0	1.000000e-01	1.000000e-02	0.0	1.100000e-01	1.000000e-02	0.0	1.200000e-01	1.000000e-02	0.0	1.300000e-01	1.000000e-02	0.0	1.400000e-01	1.000000e-02	0.0	1.500000e-01	1.000000e-02	0.0	1.600000e-01	1.000000e-02	0.0	1.700000e-01	1.000000e-02	0.0	1.800000e-01	1.000000e-02	0.0	1.900000e-01	1.000000e-02	0.0	2.000000e-01	1.000000e-02	0.0	2.100000e-01	1.000000e-02	0.0	2.200000e-01	1.000000e-02	0.0	2.300000e-01	1.000000e-02	0.0	2.400000e-01	1.000000e-02	0.0	2.500000e-01	1.000000e-02	0.0	2.600000e-01	1.000000e-02	0.0	2.700000e-01	1.000000e-02	0.0	2.800000e-01	1.000000e-02	0.0	2.900000e-01	1.000000e-02	0.0	3.000000e-01	1.000000e-02	0.0	3.100000e-01	1.000000e-02	0.0	3.200000e-01	1.000000e-02	0.0	3.300000e-01	1.000000e-02	0.0	3.400000e-01	1.000000e-02	0.0	3.500000e-01	1.000000e-02	0.0	3.600000e-01	1.000000e-02	0.0	3.700000e-01	1.000000e-02	0.0	3.800000e-01	1.000000e-02	0.0	3.900000e-01	1.000000e-02	0.0	4.000000e-01	1.000000e-02	0.0	4.100000e-01	1.000000e-02	0.0	4.200000e-01	1.000000e-02	0.0	4.300000e-01	1.000000e-02	0.0	4.400000e-01	1.000000e-02	0.0	4.500000e-01	1.000000e-02	0.0	4.600000e-01	1.000000e-02	0.0	4.700000e-01	1.000000e-02	0.0	4.800000e-01	1.000000e-02	0.0	4.900000e-01	1.000000e-02	0.0	5.000000e-01	1.000000e-02	0.0	5.100000e-01	1.000000e-02	0.0	5.200000e-01	1.000000e-02	0.0	5.300000e-01	1.000000e-02	0.0	5.400000e-01	1.000000e-02	0.0	5.500000e-01	1.000000e-02	0.0	5.600000e-01	1.000000e-02	0.0	5.700000e-01	1.000000e-02	0.0	5.800000e-01	1.000000e-02	0.0	5.900000e-01	1.000000e-02	0.0	6.000000e-01	1.000000e-02	0.0	6.100000e-01	1.000000e-02	0.0	6.200000e-01	1.000000e-02	0.0	6.300000e-01	1.000000e-02	0.0	6.400000e-01	1.000000e-02	0.0	6.500000e-01	1.000000e-02	0.0	6.600000e-01	1.000000e-02	0.0	6.700000e-01	1.000000e-02	0.0	6.800000e-01	1.000000e-02	0.0	6.900000e-01	1.000000e-02	0.0	7.000000e-01	1.000000e-02	0.0	7.100000e-01	1.000000e-02	0.0	7.200000e-01	1.000000e-02	0.0	7.300000e-01	1.000000e-02	0.0	7.400000e-01	1.000000e-02	0.0	7.500000e-01	1.000000e-02	0.0	7.600000e-01	1.000000e-02	0.0	7.700000e-01	1.000000e-02	0.0	7.800000e-01	1.000000e-02	0.0	7.900000e-01	1.000000e-02	0.0	8.000000e-01	1.000000e-02	0.0	8.100000e-01	1.000000e-02	0.0	8.200000e-01	1.000000e-02	0.0	8.300000e-01	1.000000e-02	0.0	8.400000e-01	1.000000e-02	0.0	8.500000e-01	1.000000e-02	0.0	8.600000e-01	1.000000e-02	0.0	8.700000e-01	1.000000e-02	0.0	8.800000e-01	1.000000e-02	0.0	8.900000e-01	1.000000e-02	0.0	9.000000e-01	1.000000e-02	0.0	9.100000e-01	1.000000e-02	0.0	9.200000e-01	1.000000e-02	0.0	9.300000e-01	1.000000e-02	0.0	9.400000e-01	1.000000e-02	0.0	9.500000e-01	1.000000e-02	0.0	9.600000e-01	1.000000e-02	0.0	9.700000e-01	1.000000e-02	0.0	9.800000e-01	1.000000e-02	0.0	9.900000e-01	1.000000e-02	0.0	1.000000e+00	1.000000e-02	0.0	0.000000e+00	2.000000e-02	0.0	1.000000e-02	2.000000e-02	0.0	2.000000e-02	2.000000e-02	0.0	3.000000e-02	2.000000e-02	0.0	4.000000e-02	2.000000e-02	0.0	5.000000e-02	2.000000e-02	0.0	6.000000e-02	2.000000e-02	0.0	7.000000e-02	2.000000e-02	0.0	8.000000e-02	2.000000e-02	0.0	9.000000e-02	2.000000e-02	0.0	1.000000e-01	2.000000e-02	0.0	1.100000e-01	2.000000e-02	0.0	1.200000e-01	2.000000e-02	0.0	1.300000e-01	2.000000e-02	0.0	1.400000e-01	2.000000e-02	0.0	1.500000e-01	2.000000e-02	0.0	1.600000e-01	2.000000e-02	0.0	1.700000e-01	2.000000e-02	0.0	1.800000e-01	2.000000e-02	0.0	1.900000e-01	2.000000e-02	0.0	2.000000e-01	2.000000e-02	0.0	2.100000e-01	2.000000e-02	0.0	2.200000e-01	2.000000e-02	0.0	2.300000e-01	2.000000e-02	0.0	2.400000e-01	2.000000e-02	0.0	2.500000e-01	2.000000e-02	0.0	2.600000e-01	2.000000e-02	0.0	2.700000e-01	2.000000e-02	0.0	2.800000e-01	2.000000e-02	0.0	2.900000e-01	2.000000e-02	0.0	3.000000e-01	2.000000e-02	0.0	3.100000e-01	2.000000e-02	0.0	3.200000e-01	2.000000e-02	0.0	3.300000e-01	2.000000e-02	0.0	3.400000e-01	2.000000e-02	0.0	3.500000e-01	2.000000e-02	0.0	3.600000e-01	2.000000e-02	0.0	3.700000e-01	2.000000e-02	0.0	3.800000e-01	2.000000e-02	0.0	3.900000e-01	2.000000e-02	0.0	4.000000e-01	2.000000e-02	0.0	4.100000e-01	2.000000e-02	0.0	4.200000e-01	2.000000e-02	0.0	4.300000e-01	2.000000e-02	0.0	4.400000e-01	2.000000e-02	0.0	4.500000e-01	2.000000e-02	0.0	4.600000e-01	2.000000e-02	0.0	4.700000e-01	2.000000e-02	0.0	4.800000e-01	2.000000e-02	0.0	4.900000e-01	2.000000e-02	0.0	5.000000e-01	2.000000e-02	0.0	5.100000e-01	2.000000e-02	0.0	5.200000e-01	2.000000e-02	0.0	5.300000e-01	2.000000e-02	0.0	5.400000e-01	2.000000e-02	0.0	5.500000e-01	2.000000e-02	0.0	5.600000e-01	2.000000e-02	0.0	5.700000e-01	2.000000e-02	0.0	5.800000e-01	2.000000e-02	0.0	5.900000e-01	2.000000e-02	0.0	6.000000e-01	2.000000e-02	0.0	6.100000e-01	2.000000e-02	0.0	6.200000e-01	2.000000e-02	0.0	6.300000e-01	2.000000e-02	0.0	6.400000e-01	2.000000e-02	0.0	6.500000e-01	2.000000e-02	0.0	6.600000e-01	2.000000e-02	0.0	6.700000e-01	2.000000e-02	0.0	6.800000e-01	2.000000e-02	0.0	6.900000e-01	2.000000e-02	0.0	7.000000e-01	2.000000e-02	0.0	7.100000e-01	2.000000e-02	0.0	7.200000e-01	2.000000e-02	0.0	7.300000e-01	2.000000e-02	0.0	7.400000e-01	2.000000e-02	0.0	7.500000e-01	2.000000e-02	0.0	7.600000e-01	2.000000e-02	0.0	7.700000e-01	2.000000e-02	0.0	7.800000e-01	2.000000e-02	0.0	7.900000e-01	2.000000e-02	0.0	8.000000e-01	2.000000e-02	0.0	8.100000e-01	2.000000e-02	0.0	8.200000e-01	2.000000e-02	0.0	8.300000e-01	2.000000e-02	0.0	8.400000e-01	2.000000e-02	0.0	8.500000e-01	2.000000e-02	0.0	8.600000e-01	2.000000e-02	0.0	8.700000e-01	2.000000e-02	0.0	8.800000e-01	2.000000e-02	0.0	8.900000e-01	2.000000e-02	0.0	9.000000e-01	2.000000e-02	0.0	9.100000e-01	2.000000e-02	0.0	9.200000e-01	2.000000e-02	0.0	9.300000e-01	2.000000e-02	0.0	9.400000e-01	2.000000e-02	0.0	9.500000e-01	2.000000e-02	0.0	9.600000e-01	2.000000e-02	0.0	9.700000e-01	2.000000e-02	0.0	9.800000e-01	2.000000e-02	0.0	9.900000e-01	2.000000e-02	0.0	1.000000e+00	2.000000e-02	0.0	0.000000e+00	3.000000e-02	0.0	1.000000e-02	3.000000e-02	0.0	2.000000e-02	3.000000e-02	0.0	3.000000e-02	3.000000e-02	0.0	4.000000e-02	3.000000e-02	0.0	5.000000e-02	3.000000e-02	0.0	6.000000e-02	3.000000e-02	0.0	7.000000e-02	3.000000e-02	0.0	8.000000e-02	3.000000e-02	0.0	9.000000e-02	3.000000e-02	0.0	1.000000e-01	3.000000e-02	0.0	1.100000e-01	3.000000e-02	0.0	1.200000e-01	3.000000e-02	0.0	1.300000e-01	3.000000e-02	0.0	1.400000e-01	3.000000e-02	0.0	1.500000e-01	3.000000e-02	0.0	1.600000e-01	3.000000e-02	0.0	1.700000e-01	3.000000e-02	0.0	1.800000e-01	3.000000e-02	0.0	1.900000e-01	3.000000e-02	0.0	2.000000e-01	3.000000e-02	0.0	2.100000e-01	3.000000e-02	0.0	2.200000e-01	3.000000e-02	0.0	2.300000e-01	3.000000e-02	0.0	2.400000e-01	3.000000e-02	0.0	2.500000e-01	3.000000e-02	0.0	2.600000e-01	3.000000
[...]
POINT_DATA 10201

SCALARS Height double 1
LOOKUP_TABLE default
9.989438e-01	9.989692e-01	9.989576e-01	9.989542e-01	9.989490e-01	9.989436e-01	9.989398e-01	9.989349e-01	9.989331e-01	9.989333e-01	9.989319e-01	9.989281e-01	9.989220e-01	9.989146e-01	9.989067e-01	9.988993e-01	9.988934e-01	9.988920e-01	9.988939e-01	9.988946e-01	9.988922e-01	9.988800e-01	9.988611e-01	9.988390e-01	9.988172e-01	9.987955e-01	9.987764e-01	9.987592e-01	9.987433e-01	9.987283e-01	9.987130e-01	9.986965e-01	9.986781e-01	9.986575e-01	9.986348e-01	9.986102e-01	9.985839e-01	9.985557e-01	9.985253e-01	9.984923e-01	9.984564e-01	9.984171e-01	9.983744e-01	9.983282e-01	9.982788e-01	9.982259e-01	9.981693e-01	9.981084e-01	9.980425e-01	9.979707e-01	9.978923e-01	9.978062e-01	9.977112e-01	9.976056e-01	9.974874e-01	9.973552e-01	9.972071e-01	9.970404e-01	9.968498e-01	9.966236e-01	9.963395e-01	9.959603e-01	9.954312e-01	9.946841e-01	9.936594e-01	9.923623e-01	9.909276e-01	9.896253e-01	9.887158e-01	9.882821e-01	9.882876e-01	9.889117e-01	9.910445e-01	9.960504e-01	1.004411e+00	1.014310e+00	1.022990e+00	1.029517e+00	1.034657e+00	1.038397e+00	1.039656e+00	1.037896e+00	1.033793e+00	1.028446e+00	1.021690e+00	1.012791e+00	1.002814e+00	9.945442e-01	9.896855e-01	9.876677e-01	9.870893e-01	9.871335e-01	9.876380e-01	9.886115e-01	9.899151e-01	9.912660e-01	9.924048e-01	9.932159e-01	9.937202e-01	9.939558e-01	9.940921e-01	9.989562e-01	9.989810e-01	9.989602e-01	9.989569e-01	9.989520e-01	9.989464e-01	9.989419e-01	9.989384e-01	9.989374e-01	9.989366e-01	9.989342e-01	9.989293e-01	9.989221e-01	9.989137e-01	9.989047e-01	9.988958e-01	9.988874e-01	9.988850e-01	9.988836e-01	9.988816e-01	9.988780e-01	9.988683e-01	9.988508e-01	9.988320e-01	9.988110e-01	9.987932e-01	9.987753e-01	9.987585e-01	9.987432e-01	9.987285e-01	9.987134e-01	9.986971e-01	9.986789e-01	9.986583e-01	9.986356e-01	9.986110e-01	9.985844e-01	9.985558e-01	9.985249e-01	9.984915e-01	9.984552e-01	9.984152e-01	9.983719e-01	9.983252e-01	9.982751e-01	9.982216e-01	9.981643e-01	9.981028e-01	9.980361e-01	9.979637e-01	9.978847e-01	9.977980e-01	9.977024e-01	9.975962e-01	9.974775e-01	9.973446e-01	9.971958e-01	9.970285e-01	9.968371e-01	9.966098e-01	9.963245e-01	9.959443e-01	9.954145e-01	9.946675e-01	9.936439e-01	9.923450e-01	9.908972e-01	9.895585e-01	9.886045e-01	9.881771e-01	9.881860e-01	9.887227e-01	9.907701e-01	9.959051e-01	1.004573e+00	1.014551e+00	1.023085e+00	1.029536e+00	1.034727e+00	1.038762e+00	1.040153e+00	1.038210e+00	1.033839e+00	1.028465e+00	1.021791e+00	1.013027e+00	1.002956e+00	9.943817e-01	9.894083e-01	9.874815e-01	9.869872e-01	9.870157e-01	9.875302e-01	9.885545e-01	9.898836e-01	9.912490e-01	9.923938e-01	9.932028e-01	9.937035e-01	9.939335e-01	9.940653e-01	9.989624e-01	9.989879e-01	9.989654e-01	9.989622e-01	9.989576e-01	9.989520e-01	9.989466e-01	9.989420e-01	9.989390e-01	9.989376e-01	9.989346e-01	9.989291e-01	9.989212e-01	9.989121e-01	9.989028e-01	9.988936e-01	9.988854e-01	9.988862e-01	9.988832e-01	9.988821e-01	9.988790e-01	9.988684e-01	9.988515e-01	9.988287e-01	9.988074e-01	9.987864e-01	9.987700e-01	9.987538e-01	9.987393e-01	9.987253e-01	9.987109e-01	9.986953e-01	9.986778e-01	9.986583e-01	9.986363e-01	9.986125e-01	9.985865e-01	9.985583e-01	9.985277e-01	9.984946e-01	9.984587e-01	9.984196e-01	9.983771e-01	9.983310e-01	9.982814e-01	9.982280e-01	9.981707e-01	9.981091e-01	9.980426e-01	9.979703e-01	9.978913e-01	9.978045e-01	9.977087e-01	9.976022e-01	9.974833e-01	9.973503e-01	9.972013e-01	9.970335e-01	9.968404e-01	9.966099e-01	9.963198e-01	9.959331e-01	9.953960e-01	9.946442e-01	9.936265e-01	9.923483e-01	9.909219e-01	9.895767e-01	9.886207e-01	9.882441e-01	9.882581e-01	9.887887e-01	9.908929e-01	9.961526e-01	1.004888e+00	1.014644e+00	1.022907e+00	1.029239e+00	1.034381e+00	1.038583e+00	1.040181e+00	1.037987e+00	1.033501e+00	1.028182e+00	1.021625e+00	1.013138e+00	1.003279e+00	9.946382e-01	9.895383e-01	9.875516e-01	9.870593e-01	9.870722e-01	9.875393e-01	9.885685e-01	9.898957e-01	9.912416e-01	9.923715e-01	9.931777e-01	9.936838e-01	9.939202e-01	9.940526e-01	9.989576e-01	9.989808e-01	9.989621e-01	9.989592e-01	9.989552e-01	9.989497e-01	9.989444e-01	9.989394e-01	9.989367e-01	9.989352e-01	9.989326e-01	9.989276e-01	9.989201e-01	9.989116e-01	9.989030e-01	9.988955e-01	9.988864e-01	9.988883e-01	9.988861e-01	9.988849e-01	9.988817e-01	9.988712e-01	9.988526e-01	9.988298e-01	9.988075e-01	9.987873e-01	9.987697e-01	9.987536e-01	9.987390e-01	9.987250e-01	9.987106e-01	9.986947e-01	9.986767e-01	9.986566e-01	9.986348e-01	9.986108e-01	9.985846e-01	9.985561e-01	9.985250e-01	9.984914e-01	9.984551e-01	9.984159e-01	9.983735e-01	9.983275e-01	9.982777e-01	9.982238e-01	9.981659e-01	9.981036e-01	9.980366e-01	9.979640e-01	9.978847e-01	9.977975e-01	9.977009e-01	9.975935e-01	9.974738e-01	9.973403e-01	9.971907e-01	9.970218e-01	9.968265e-01	9.965915e-01	9.962939e-01	9.958969e-01	9.953468e-01	9.945821e-01	9.935586e-01	9.922867e-01	9.908627e-01	9.895128e-01	9.886040e-01	9.883043e-01	9.883331e-01	9.888837e-01	9.910375e-01	9.963893e-01	1.005139e+00	1.014753e+00	1.022836e+00	1.029075e+00	1.034206e+00	1.038555e+00	1.040316e+00	1.037938e+00	1.033324e+00	1.028027e+00	1.021566e+00	1.013252e+00	1.003529e+00	9.948788e-01	9.896929e-01	9.876514e-01	9.871380e-01	9.871202e-01	9.875065e-01	9.884939e-01	9.898241e-01	9.911688e-01	9.922956e-01	9.931093e-01	9.936274e-01	9.938714e-01	9.940122e-01	9.989566e-01	9.989786e-01	9.989614e-01	9.989590e-01	9.989549e-01	9.989488e-01	9.989430e-01	9.989372e-01	9.989346e-01	9.989332e-01	9.989304e-01	9.989248e-01	9.989171e-01	9.989085e-01	9.989002e-01	9.988932e-01	9.988847e-01	9.988869e-01	9.988851e-01	9.988838e-01	9.988801e-01	9.988695e-01	9.988500e-01	9.988272e-01	9.988046e-01	9.987842e-01	9.987663e-01	9.987503e-01	9.987359e-01	9.987220e-01	9.987076e-01	9.986915e-01	9.986735e-01	9.986534e-01	9.986313e-01	9.986075e-01	9.985815e-01	9.985529e-01	9.985218e-01	9.984880e-01	9.984517e-01	9.984126e-01	9.983704e-01	9.983246e-01	9.982748e-01	9.982205e-01	9.981619e-01	9.980988e-01	9.980312e-01	9.979582e-01	9.978787e-01	9.977909e-01	9.976934e-01	9.975850e-01	9.974644e-01	9.973301e-01	9.971798e-01	9.970092e-01	9.968106e-01	9.965694e-01	9.962618e-01	9.958505e-01	9.952829e-01	9.945019e-01	9.934687e-01	9.921936e-01	9.907625e-01	9.894382e-01	9.886287e-01	9.884106e-01	9.884595e-01	9.890390e-01	9.912505e-01	9.966666e-01	1.005382e+00	1.014848e+00	1.022759e+00	1.028904e+00	1.034055e+00	1.038480e+00	1.040258e+00	1.037858e+00	1.033175e+00	1.027863e+00	1.021495e+00	1.013344e+00	1.003773e+00	9.951690e-01	9.899236e-01	9.878154e-01	9.872615e-01	9.872101e-01	9.875072e-01	9.883998e-01	9.897092e-01	9.910582e-01	9.921918e-01	9.930186e-01	9.935526e-01	9.938062e-01	9.939583e-01	9.989548e-01	9.989760e-01	9.989604e-01	9.989583e-01	9.989535e-01	9.989464e-01	9.989400e-01	9.989343e-01	9.989312e-01	9.989295e-01	9.989266e-01	9.989213e-01	9.989136e-01	9.989053e-01	9.988976e-01	9.988911e-01	9.988836e-01	9.988854e-01	9.988840e-01	9.988821e-01	9.988778e-01	9.988681e-01	9.988467e-01	9.988246e-01	9.988021e-01	9.987822e-01	9.987641e-01	9.987482e-01	9.987339e-01	9.987202e-01	9.987058e-01	9.986896e-01	9.986713e-01	9.986511e-01	9.986287e-01	9.986045e-01	9.985782e-01	9.985496e-01	9.985183e-01	9.984844e-01	9.984478e-01	9.984085e-01	9.983660e-01	9.983200e-01	9.982698e-01	9.982150e-01	9.981555e-01	9.980915e-01	9.980228e-01	9.979491e-01	9.978689e-01	9.977804e-01	9.976821e-01	9.975727e-01	9.974510e-01	9.973158e-01	9.971642e-01	9.969914e-01	9.967881e-01	9.965393e-01	9.962189e-01	9.957892e-01	9.952012e-01	9.944018e-01	9.933527e-01	9.920556e-01	9.906185e-01	9.893654e-01	9.886924e-01	9.885435e-01	9.886127e-01	9.892531e-01	9.915520e-01	9.970079e-01	1.005627e+00	1.014915e+00	1.022675e+00	1.028771e+00	1.033954e+00	1.038353e+00	1.040083e+00	1.037739e+00	1.033079e+00	1.027724e+00	1.021406e+00	1.013406e+00	1.004022e+00	9.955303e-01	9.902479e-01	9.880386e-01	9.874167e-01	9.873272e-01	9.875324e-01	9.882974e-01	9.895500e-01	9.909031e-01	9.920578e-01	9.929042e-01	9.934559e-01	9.937218e-01	9.938872e-01	9.989532e-01	9.989715e-01	9.989587e-01	9.989561e-01	9.989506e-01	9.989430e-01	9.989366e-01	9.989317e-01	9.989285e-01	9.989268e-01	9.989236e-01	9.989183e-01	9.989110e-01	9.989032e-01	9.988959e-01	9.988896e-01	9.988832e-01	9.988826e-01	9.988818e-01	9.988792e-01	9.988741e-01	9.988634e-01	9.988419e-01	9.988205e-01	9.987982e-01	9.987790e-01	9.987610e-01	9.987451e-01	9.987309e-01	9.987174e-01	9.987027e-01	9.986867e-01	9.986684e-01	9.986478e-01	9.986250e-01	9.986003e-01	9.985737e-01	9.985450e-01	9.985138e-01	9.984800e-01	9.984433e-01	9.984038e-01	9.983610e-01	9.983145e-01	9.982640e-01	9.982087e-01	9.981486e-01	9.980837e-01	9.980140e-01	9.979391e-01	9.978578e-01	9.977685e-01	9.976694e-01	9.975589e-01	9.974360e-01	9.972991e-01	9.971453e-01	9.969689e-01	9.967595e-01	9.965005e-01	9.961643e-01	9.957127e-01	9.950977e-01	9.942727e-01	9.931994e-01	9.918748e-01	9.904478e-01	9.893149e-01	9.887900e-01	9.886946e-01	9.888028e-01	9.895332e-01	9.919430e-01	9.974179e-01	1.005875e+00	1.014949e+00	1.022586e+00	1.028678e+00	1.033874e+00	1.038153e+00	1.039805e+00	1.037559e+00	1.032996e+00	1.027615e+00	1.021309e+00	1.013442e+00	1.004285e+00	9.959669e-01	9.906637e-01	9.883243e-01	9.876046e-01	9.874702e-01	9.875848e-01	9.882018e-01	9.893589e-01	9.907036e-01	9.918837e-01	9.927607e-01	9.933406e-01	9.936214e-01	9.938012e-01	9.989479e-01	9.989641e-01	9.989539e-01	9.989510e-01	9.989451e-01	9.989376e-01	9.989322e-01	9.989284e-01	9.989258e-01	9.989240e-01	9.989207e-01	9.989157e-01	9.989093e-01	9.989026e-01	9.988960e-01	9.988899e-01	9.988851e-01	9.988811e-01	9.988808e-01	9.988761e-01	9.988701e-01	9.988569e-01	9.988366e-01	9.988158e-01	9.987943e-01	9.987757e-01	9.987576e-01	9.987416e-01	9.987272e-01	9.987132e-01	9.986988e-01	9.986825e-01	9.986642e-01	9.986435e-01	9.986204e-01	9.985953e-01	9.985682e-01	9.985391e-01	9.985078e-01	9.984739e-01	9.984371e-01	9.983971e-01	9.983537e-01	9.983066e-01	9.982554e-01	9.981998e-01	9.981394e-01	9.980740e-01	9.980034e-01	9.979274e-01	9.978449e-01	9.977548e-01	9.976552e-01	9.975442e-01	9.974202e-01	9.972813e-01	9.971242e-01	9.969426e-01	9.967255e-01	9.964531e-01	9.960989e-01	9.956221e-01	9.949775e-01	9.941176e-01	9.930011e-01	9.916456e-01	9.902677e-01	9.892926e-01	9.889145e-01	9.888689e-01	9.890284e-01	9.898745e-01	9.924184e-01	9.978939e-01	1.006131e+00	1.014963e+00	1.022507e+00	1.028615e+00	1.033785e+00	1.037881e+00	1.039420e+00	1.037310e+00	1.032907e+00	1.027537e+00	1.021222e+00	1.013463e+00	1.004564e+00	9.964739e-01	9.911642e-01	9.886715e-01	9.878259e-01	9.876302e-01	9.876715e-01	9.881250e-01	9.891445e-01	9.904523e-01	9.916622e-01	9.925826e-01	9.931965e-01	9.934965e-01	9.936929e-01	9.989440e-01	9.989596e-01	9.989490e-01	9.989460e-01	9.989388e-01	9.989323e-01	9.989279e-01	9.989249e-01	9.989225e-01	9.989200e-01	9.989168e-01	9.989122e-01	9.989068e-01	9.989011e-01	9.988954e-01	9.988896e-01	9.988847e-01	9.988805e-01	9.988776e-01	9.988739e-01	9.988648e-01	9.988503e-01	9.988318e-01	9.988104e-01	9.987919e-01	9.987728e-01	9.987551e-01	9.987388e-01	9.987237e-01	9.987091e-01	9.986941e-01	9.986778e-01	9.986595e-01	9.986390e-01	9.986155e-01	9.985900e-01	9.985624e-01	9.985329e-01	9.985012e-01	9.984670e-01	9.984298e-01	9.983893e-01	9.983451e-01	9.982971e-01	9.982451e-01	9.981889e-01	9.981279e-01	9.980619e-01	9.979904e-01	9.979130e-01	9.978293e-01	9.977381e-01	9.976377e-01	9.975262e-01	9.974010e-01	9.972598e-01	9.970987e-01	9.969109e-01	9.966840e-01	9.963976e-01	9.960204e-01	9.955147e-01	9.948350e-01	9.939305e-01	9.927613e-01	9.913848e-01	9.900966e-01	9.893075e-01	9.890663e-01	9.890631e-01	9.892939e-01	9.902807e-01	9.929798e-01	9.984360e-01	1.006407e+00	1.014975e+00	1.022442e+00	1.028563e+00	1.033666e+00	1.037526e+00	1.038936e+00	1.036982e+00	1.032796e+00	1.027477e+00	1.021150e+00	1.013484e+00	1.004866e+00	9.970461e-01	9.917490e-01	9.890860e-01	9.880822e-01	9.878116e-01	9.877868e-01	9.880783e-01	9.889243e-01	9.901648e-01	9.913976e-01	9.923681e-01	9.930240e-01	9.933466e-01	9.935609e-01	9.989421e-01	9.989531e-01	9.989432e-01	9.989402e-01	9.989330e-01	9.989277e-01	9.989245e-01	9.989223e-01	9.989194e-01	9.989167e-01	9.989127e-01	9.989086e-01	9.989041e-01	9.988988e-01	9.988934e-01	9.988879e-01	9.988825e-01	9.988779e-01	9.988733e-01	9.988673e-01	9.988581e-01	9.988434e-01	9.988249e-01	9.988073e-01	9.987881e-01	9.987704e-01	9.987531e-01	9.987365e-01	9.987207e-01	9.987052e-01	9.986897e-01	9.986729e-01	9.986545e-01	9.986336e-01	9.986101e-01	9.985843e-01	9.985562e-01	9.985261e-01	9.984938e-01	9.984589e-01	9.984211e-01	9.983800e-01	9.983352e-01	9.982866e-01	9.982338e-01	9.981768e-01	9.981152e-01	9.980485e-01	9.979761e-01	9.978975e-01	9.978123e-01	9.977195e-01	9.976177e-01	9.975046e-01	9.973774e-01	9.972332e-01	9.970673e-01	9.968719e-01	9.966329e-01	9.963281e-01	9.959263e-01	9.953879e-01	9.946652e-01	9.937031e-01	9.924759e-01	9.911035e-01	9.899523e-01	9.893719e-01	9.892436e-01	9.892772e-01	9.896044e-01	9.907574e-01	9.936270e-01	9.990449e-01	1.006721e+00	1.015008e+00	1.022389e+00	1.028501e+00	1.033492e+00	1.037083e+00	1.038326e+00	1.036570e+00	1.032643e+00	1.027418e+00	1.021095e+00	1.013525e+00	1.005202e+00	9.976801e-01	9.924152e-01	9.895714e-01	9.883816e-01	9.880093e-01	9.879253e-01	9.880748e-01	9.887174e-01	9.898469e-01	9.910865e-01	9.921112e-01	9.928181e-01	9.931688e-01	9.934034e-01	9.989379e-01	9.989458e-01	9.989361e-01	9.989335e-01	9.989273e-01	9.989231e-01	9.989209e-01	9.989193e-01	9.989166e-01	9.989129e-01	9.989089e-01	9.989045e-01	9.989006e-01	9.988965e-01	9.988915e-01	9.988852e-01	9.988790e-01	9.988730e-01	9.988672e-01	9.988596e-01	9.988491e-01	9.988350e-01	9.988182e-01	9.988005e-01	9.987834e-01	9.987669e-01	9.987504e-01	9.987337e-01	9.987175e-01	9.987013e-01	9.986851e-01	9.986678e-01	9.986490e-01	9.986280e-01	9.986043e-01	9.985781e-01	9.985495e-01	9.985186e-01	9.984853e-01	9.984493e-01	9.984106e-01	9.983687e-01	9.983234e-01	9.982743e-01	9.982209e-01	9.981632e-01	9.981009e-01	9.980335e-01	9.979604e-01	9.978810e-01	9.977946e-01	9.977002e-01	9.975962e-01	9.974804e-01	9.973503e-01	9.972018e-01	9.970297e-01	9.968249e-01	9.965716e-01	9.962459e-01	9.958149e-01	9.952373e-01	9.944609e-01	9.934297e-01	9.921474e-01	9.908174e-01	9.898566e-01	9.894805e-01	9.894349e-01	9.895152e-01	9.899616e-01	9.913093e-01	9.943573e-01	9.997239e-01	1.007087e+00	1.015073e+00	1.022340e+00	1.028412e+00	1.033241e+00	1.036521e+00	1.037600e+00	1.036058e+00	1.032431e+00	1.027340e+00	1.021046e+00	1.013597e+00	1.005588e+00	9.983789e-01	9.931600e-01	9.901305e-01	9.887269e-01	9.882254e-01	9.880884e-01	9.881216e-01	9.885433e-01	9.895112e-01	9.907296e-01	9.918083e-01	9.925754e-01	9.929607e-01	9.932185e-01	9.989308e-01	9.989377e-01	9.989283e-01	9.989264e-01	9.989213e-01	9.989180e-01	9.989165e-01	9.989156e-01	9.989131e-01	9.989095e-01	9.989050e-01	9.989011e-01	9.988969e-01	9.988928e-01	9.988879e-01	9.988822e-01	9.988752e-01	9.988685e-01	9.988610e-01	9.988526e-01	9.988408e-01	9.988268e-01	9.988106e-01	9.987946e-01	9.987785e-01	9.987628e-01	9.987465e-01	9.987304e-01	9.987131e-01	9.986963e-01	9.986794e-01	9.986616e-01	9.986424e-01	9.986214e-01	9.985975e-01	9.985712e-01	9.985421e-01	9.985104e-01	9.984759e-01	9.984387e-01	9.983987e-01	9.983558e-01	9.983097e-01	9.982599e-01	9.982059e-01	9.981475e-01	9.980845e-01	9.980164e-01	9.979427e-01	9.978626e-01	9.977751e-01	9.976791e-01	9.975726e-01	9.974536e-01	9.973193e-01	9.971657e-01	9.969867e-01	9.967708e-01	9.965004e-01	9.961497e-01	9.956841e-01	9.950585e-01	9.942155e-01	9.931061e-01	9.917823e-01	9.905496e-01	9.898283e-01	9.896330e-01	9.896350e-01	9.897811e-01	9.903716e-01	9.919384e-01	9.951678e-01	1.000477e+00	1.007519e+00	1.015180e+00	1.022289e+00	1.028272e+00	1.032905e+00	1.035841e+00	1.036754e+00	1.035433e+00	1.032141e+00	1.027224e+00	1.020997e+00	1.013711e+00	1.006040e+00	9.991485e-01	9.939809e-01	9.907643e-01	9.891249e-01	9.884617e-01	9.882601e-01	9.882127e-01	9.884262e-01	9.891773e-01	9.903271e-01	9.914526e-01	9.922895e-01	9.927181e-01	9.930036e-01	9.989221e-01	9.989286e-01	9.989197e-01	9.989189e-01	9.989148e-01	9.989122e-01	9.989110e-01	9.989106e-01	9.989087e-01	9.989057e-01	9.989017e-01	9.988974e-01	9.988936e-01	9.988888e-01	9.988838e-01	9.988776e-01	9.988706e-01	9.988629e-01	9.988537e-01	9.988431e-01	9.988308e-01	9.988177e-01	9.988036e-01	9.987886e-01	9.987735e-01	9.987582e-01	9.987420e-01	9.987245e-01	9.987071e-01	9.986896e-01	9.986720e-01	9.986538e-01	9.986345e-01	9.986127e-01	9.985889e-01	9.985625e-01	9.985333e-01	9.985010e-01	9.984657e-01	9.984275e-01	9.983864e-01	9.983423e-01	9.982951e-01	9.982443e-01	9.981895e-01	9.981304e-01	9.980667e-01	9.979977e-01	9.979231e-01	9.978418e-01	9.977529e-01	9.976549e-01	9.975456e-01	9.974229e-01	9.972840e-01	9.971246e-01	9.969369e-01	9.967080e-01	9.964176e-01	9.960374e-01	9.955303e-01	9.948460e-01	9.939227e-01	9.927288e-01	9.913950e-01	9.903320e-01	9.898808e-01	9.898116e-01	9.898436e-01	9.900812e-01	9.908436e-01	9.926471e-01	9.960558e-01	1.001305e+00	1.008025e+00	1.015329e+00	1.022230e+00	1.028068e+00	1.032460e+00	1.035041e+00	1.035787e+00	1.034692e+00	1.031752e+00	1.027042e+00	1.020947e+00	1.013880e+00	1.006573e+00	9.999930e-01	9.948766e-01	9.914759e-01	9.895830e-01	9.887269e-01	9.884272e-01	9.883341e-01	9.883863e-01	9.888752e-01	9.898854e-01	9.910341e-01	9.919475e-01	9.924316e-01	9.927523e-01	9.989137e-01	9.989191e-01	9.989110e-01	9.989113e-01	9.989081e-01	9.989059e-01	9.989048e-01	9.989049e-01	9.989035e-01	9.989014e-01	9.988980e-01	9.988938e-01	9.988893e-01	9.988844e-01	9.988787e-01	9.988724e-01	9.988654e-01	9.988566e-01	9.988463e-01	9.988346e-01	9.988215e-01	9.988092e-01	9.987966e-01	9.987831e-01	9.987687e-01	9.987536e-01	9.987362e-01	9.987184e-01	9.986998e-01	9.986820e-01	9.986643e-01	9.986447e-01	9.986244e-01	9.986025e-01	9.985783e-01	9.985517e-01	9.985221e-01	9.984896e-01	9.984539e-01	9.984152e-01	9.983733e-01	9.983283e-01	9.982800e-01	9.982281e-01	9.981724e-01	9.981127e-01	9.980484e-01	9.979786e-01	9.979025e-01	9.978194e-01	9.977281e-01	9.976270e-01	9.975142e-01	9.973874e-01	9.972433e-01	9.970770e-01	9.968794e-01	9.966347e-01	9.963204e-01	9.959054e-01	9.953481e-01	9.945920e-01	9.935736e-01	9.922954e-01	9.910150e-01	9.902165e-01	9.899942e-01	9.899913e-01	9.900696e-01	9.904286e-01	9.913883e-01	9.934385e-01	9.970210e-01	1.002207e+00	1.008606e+00	1.015524e+00	1.022157e+00	1.027797e+00	1.031891e+00	1.034114e+00	1.034702e+00	1.033823e+00	1.031233e+00	1.026791e+00	1.020891e+00	1.014109e+00	1.007194e+00	1.000914e+00	9.958453e-01	9.922662e-01	9.901115e-01	9.890325e-01	9.885988e-01	9.884609e-01	9.884208e-01	9.886477e-01	9.894289e-01	9.905447e-01	9.915331e-01	9.920860e-01	9.924528e-01	9.989054e-01	9.989099e-01	9.989029e-01	9.989041e-01	9.989013e-01	9.988994e-01	9.988983e-01	9.988989e-01	9.988982e-01	9.988963e-01	9.988937e-01	9.988892e-01	9.988846e-01	9.988791e-01	9.988725e-01	9.988660e-01	9.988581e-01	9.988490e-01	9.988375e-01	9.988245e-01	9.988108e-01	9.987993e-01	9.987886e-01	9.987767e-01	9.987637e-01	9.987477e-01	9.987299e-01	9.987117e-01	9.986935e-01	9.986739e-01	9.986549e-01	9.986351e-01	9.986142e-01	9.985914e-01	9.985664e-01	9.985390e-01	9.985089e-01	9.984760e-01	9.984401e-01	9.984010e-01	9.983586e-01	9.983128e-01	9.982636e-01	9.982110e-01	9.981547e-01	9.980945e-01	9.980296e-01	9.979589e-01	9.978815e-01	9.977961e-01	9.977014e-01	9.975961e-01	9.974787e-01	9.973471e-01	9.971976e-01	9.970233e-01	9.968132e-01	9.965493e-01	9.962063e-01	9.957495e-01	9.951312e-01	9.942860e-01	9.931544e-01	9.918171e-01	9.906991e-01	9.902181e-01	9.901474e-01	9.901707e-01	9.903293e-01	9.908351e-01	9.920136e-01	9.943137e-01	9.980608e-01	1.003183e+00	1.009266e+00	1.015769e+00	1.022061e+00	1.027421e+00	1.031183e+00	1.033056e+00	1.033500e+00	1.032823e+00	1.030570e+00	1.026441e+00	1.020825e+00	1.014406e+00	1.007903e+00	1.001913e+00	9.968873e-01	9.931333e-01	9.907163e-01	9.893973e-01	9.887956e-01	9.885737e-01	9.884938e-01	9.885305e-01	9.890089e-01	9.899928e-01	9.910305e-01	9.916624e-01	9.920876e-01	9.988984e-01	9.989015e-01	9.988948e-01	9.988970e-01	9.988947e-01	9.988931e-01	9.988922e-01	9.988928e-01	9.988924e-01	9.988906e-01	9.988875e-01	9.988837e-01	9.988784e-01	9.988727e-01	9.988660e-01	9.988573e-01	9.988504e-01	9.988408e-01	9.988276