# vtk DataFile Version 3.0
vtk output
ASCII
DATASET STRUCTURED_GRID
DIMENSIONS 101 101 1
POINTS 10201 double
0.000000e+00	0.000000e+00	0.0	1.000000e-02	0.000000e+00	0.0	2.000000e-02	0.000000e+00	0.0	3.000000e-02	0.000000e+00	0.0	4.000000e-02	0.000000e+00	0.0	5.000000e-02	0.000000e+00	0.0	6.000000e-02	0.000000e+00	0.0	7.000000e-02	0.000000e+00	0.0	8.000000e-02	0.000000e+00	0.0	9.000000e-02	0.000000e+00	0.0	1.000000e-01	0.000000e+00	0.0	1.100000e-01	0.000000e+00	0.0	1.200000e-01	0.000000e+00	0.0	1.300000e-01	0.000000e+00	0.0	1.400000e-01	0.000000e+00	0.0	1.500000e-01	0.000000e+00	0.0	1.600000e-01	0.000000e+00	0.0	1.700000e-01	0.000000e+00	0.0	1.800000e-01	0.000000e+00	0.0	1.900000e-01	0.000000e+00	0.0	2.000000e-01	0.000000e+00	0.0	2.100000e-01	0.000000e+00	0.0	2.200000e-01	0.000000e+00	0.0	2.300000e-01	0.000000e+00	0.0	2.400000e-01	0.000000e+00	0.0	2.500000e-01	0.000000e+00	0.0	2.600000e-01	0.000000e+00	0.0	2.700000e-01	0.000000e+00	0.0	2.800000e-01	0.000000e+00	0.0	2.900000e-01	0.000000e+00	0.0	3.000000e-01	0.000000e+00	0.0	3.100000e-01	0.000000e+00	0.0	3.200000e-01	0.000000e+00	0.0	3.300000e-01	0.000000e+00	0.0	3.400000e-01	0.000000e+00	0.0	3.500000e-01	0.000000e+00	0.0	3.600000e-01	0.000000e+00	0.0	3.700000e-01	0.000000e+00	0.0	3.800000e-01	0.000000e+00	0.0	3.900000e-01	0.000000e+00	0.0	4.000000e-01	0.000000e+00	0.0	4.100000e-01	0.000000e+00	0.0	4.200000e-01	0.000000e+00	0.0	4.300000e-01	0.000000e+00	0.0	4.400000e-01	0.000000e+00	0.0	4.500000e-01	0.000000e+00	0.0	4.600000e-01	0.000000e+00	0.0	4.700000e-01	0.000000e+00	0.0	4.800000e-01	0.000000e+00	0.0	4.900000e-01	0.000000e+00	0.0	5.000000e-01	0.000000e+00	0.0	5.100000e-01	0.000000e+00	0.0	5.200000e-01	0.000000e+00	0.0	5.300000e-01	0.000000e+00	0.0	5.400000e-01	0.000000e+00	0.0	5.500000e-01	0.000000e+00	0.0	5.600000e-01	0.000000e+00	0.0	5.700000e-01	0.000000e+00	0.0	5.800000e-01	0.000000e+00	0.0	5.900000e-01	0.000000e+00	0.0	6.000000e-01	0.000000e+00	0.0	6.100000e-01	0.000000e+00	0.0	6.200000e-01	0.000000e+00	0.0	6.300000e-01	0.000000e+00	0.0	6.400000e-01	0.000000e+00	0.0	6.500000e-01	0.000000e+00	0.0	6.600000e-01	0.000000e+00	0.0	6.700000e-01	0.000000e+00	0.0	6.800000e-01	0.000000e+00	0.0	6.900000e-01	0.000000e+00	0.0	7.000000e-01	0.000000e+00	0.0	7.100000e-01	0.000000e+00	0.0	7.200000e-01	0.000000e+00	0.0	7.300000e-01	0.000000e+00	0.0	7.400000e-01	0.000000e+00	0.0	7.500000e-01	0.000000e+00	0.0	7.600000e-01	0.000000e+00	0.0	7.700000e-01	0.000000e+00	0.0	7.800000e-01	0.000000e+00	0.0	7.900000e-01	0.000000e+00	0.0	8.000000e-01	0.000000e+00	0.0	8.100000e-01	0.000000e+00	0.0	8.200000e-01	0.000000e+00	0.0	8.300000e-01	0.000000e+00	0.0	8.400000e-01	0.000000e+00	0.0	8.500000e-01	0.000000e+00	0.0	8.600000e-01	0.000000e+00	0.0	8.700000e-01	0.000000e+00	0.0	8.800000e-01	0.000000e+00	0.0	8.900000e-01	0.000000e+00	0.0	9.000000e-01	0.000000e+00	0.0	9.100000e-01	0.000000e+00	0.0	9.200000e-01	0.000000e+00	0.0	9.300000e-01	0.000000e+00	0.0	9.400000e-01	0.000000e+00	0.0	9.500000e-01	0.000000e+00	0.0	9.600000e-01	0.000000e+00	0.0	9.700000e-01	0.000000e+00	0.0	9.800000e-01	0.000000e+00	0.0	9.900000e-01	0.000000e+00	0.0	1.000000e+00	0.000000e+00	0.0	0.000000e+00	1.000000e-02	0.0	1.000000e-02	1.000000e-02	0.0	2.000000e-02	1.000000e-02	0.0	3.000000e-02	1.000000e-02	0.0	4.000000e-02	1.000000e-02	0.0	5.000000e-02	1.000000e-02	0.0	6.000000e-02	1.000000e-02	0.0	7.000000e-02	1.000000e-02	0.0	8.000000e-02	1.000000e-02	0.0	9.000000e-02	1.000000e-02	0.0	1.000000e-01	1.000000e-02	0.0	1.100000e-01	1.000000e-02	0.0	1.200000e-01	1.000000e-02	0.0	1.300000e-01	1.000000e-02	0.0	1.400000e-01	1.000000e-02	0.0	1.500000e-01	1.000000e-02	0.0	1.600000e-01	1.000000e-02	0.0	1.700000e-01	1.000000e-02	0.0	1.800000e-01	1.000000e-02	0.0	1.900000e-01	1.000000e-02	0.0	2.000000e-01	1.000000e-02	0.0	2.100000e-01	1.000000e-02	0.0	2.200000e-01	1.000000e-02	0.0	2.300000e-01	1.000000e-02	0.0	2.400000e-01	1.000000e-02	0.0	2.500000e-01	1.000000e-02	0.0	2.600000e-01	1.000000e-02	0.0	2.700000e-01	1.000000e-02	0.0	2.800000e-01	1.000000e-02	0.0	2.900000e-01	1.000000e-02	0.0	3.000000e-01	1.000000e-02	0.0	3.100000e-01	1.000000e-02	0.0	3.200000e-01	1.000000e-02	0.0	3.300000e-01	1.000000e-02	0.0	3.400000e-01	1.000000e-02	0.0	3.500000e-01	1.000000e-02	0.0	3.600000e-01	1.000000e-02	0.0	3.700000e-01	1.000000e-02	0.0	3.800000e-01	1.000000e-02	0.0	3.900000e-01	1.000000e-02	0.0	4.000000e-01	1.000000e-02	0.0	4.100000e-01	1.000000e-02	0.0	4.200000e-01	1.000000e-02	0.0	4.300000e-01	1.000000e-02	0.0	4.400000e-01	1.000000e-02	0.0	4.500000e-01	1.000000e-02	0.0	4.600000e-01	1.000000e-02	0.0	4.700000e-01	1.000000e-02	0.0	4.800000e-01	1.000000e-02	0.0	4.900000e-01	1.000000e-02	0.0	5.000000e-01	1.000000e-02	0.0	5.100000e-01	1.000000e-02	0.0	5.200000e-01	1.000000e-02	0.0	5.300000e-01	1.000000e-02	0.0	5.400000e-01	1.000000e-02	0.0	5.500000e-01	1.000000e-02	0.0	5.600000e-01	1.000000e-02	0.0	5.700000e-01	1.000000e-02	0.0	5.800000e-01	1.000000e-02	0.0	5.900000e-01	1.000000e-02	0.0	6.000000e-01	1.000000e-02	0.0	6.100000e-01	1.000000e-02	0.0	6.200000e-01	1.000000e-02	0.0	6.300000e-01	1.000000e-02	0.0	6.400000e-01	1.000000e-02	0.0	6.500000e-01	1.000000e-02	0.0	6.600000e-01	1.000000e-02	0.0	6.700000e-01	1.000000e-02	0.0	6.800000e-01	1.000000e-02	0.0	6.900000e-01	1.000000e-02	0.0	7.000000e-01	1.000000e-02	0.0	7.100000e-01	1.000000e-02	0.0	7.200000e-01	1.000000e-02	0.0	7.300000e-01	1.000000e-02	0.0	7.400000e-01	1.000000e-02	0.0	7.500000e-01	1.000000e-02	0.0	7.600000e-01	1.000000e-02	0.0	7.700000e-01	1.000000e-02	0.0	7.800000e-01	1.000000e-02	0.0	7.900000e-01	1.000000e-02	0.0	8.000000e-01	1.000000e-02	0.0	8.100000e-01	1.000000e-02	0.0	8.200000e-01	1.000000e-02	0.0	8.300000e-01	1.000000e-02	0.0	8.400000e-01	1.000000e-02	0.0	8.500000e-01	1.000000e-02	0.0	8.600000e-01	1.000000e-02	0.0	8.700000e-01	1.000000e-02	0.0	8.800000e-01	1.000000e-02	0.0	8.900000e-01	1.000000e-02	0.0	9.000000e-01	1.000000e-02	0.0	9.100000e-01	1.000000e-02	0.0	9.200000e-01	1.000000e-02	0.0	9.300000e-01	1.000000e-02	0.0	9.400000e-01	1.000000e-02	0.0	9.500000e-01	1.000000e-02	0.0	9.600000e-01	1.000000e-02	0.0	9.700000e-01	1.000000e-02	0.0	9.800000e-01	1.000000e-02	0.0	9.900000e-01	1.000000e-02	0.0	1.000000e+00	1.000000e-02	0.0	0.000000e+00	2.000000e-02	0.0	1.000000e-02	2.000000e-02	0.0	2.000000e-02	2.000000e-02	0.0	3.000000e-02	2.000000e-02	0.0	4.000000e-02	2.000000e-02	0.0	5.000000e-02	2.000000e-02	0.0	6.000000e-02	2.000000e-02	0.0	7.000000e-02	2.000000e-02	0.0	8.000000e-02	2.000000e-02	0.0	9.000000e-02	2.000000e-02	0.0	1.000000e-01	2.000000e-02	0.0	1.100000e-01	2.000000e-02	0.0	1.200000e-01	2.000000e-02	0.0	1.300000e-01	2.000000e-02	0.0	1.400000e-01	2.000000e-02	0.0	1.500000e-01	2.000000e-02	0.0	1.600000e-01	2.000000e-02	0.0	1.700000e-01	2.000000e-02	0.0	1.800000e-01	2.000000e-02	0.0	1.900000e-01	2.000000e-02	0.0	2.000000e-01	2.000000e-02	0.0	2.100000e-01	2.000000e-02	0.0	2.200000e-01	2.000000e-02	0.0	2.300000e-01	2.000000e-02	0.0	2.400000e-01	2.000000e-02	0.0	2.500000e-01	2.000000e-02	0.0	2.600000e-01	2.000000e-02	0.0	2.700000e-01	2.000000e-02	0.0	2.800000e-01	2.000000e-02	0.0	2.900000e-01	2.000000e-02	0.0	3.000000e-01	2.000000e-02	0.0	3.100000e-01	2.000000e-02	0.0	3.200000e-01	2.000000e-02	0.0	3.300000e-01	2.000000e-02	0.0	3.400000e-01	2.000000e-02	0.0	3.500000e-01	2.000000e-02	0.0	3.600000e-01	2.000000e-02	0.0	3.700000e-01	2.000000e-02	0.0	3.800000e-01	2.000000e-02	0.0	3.900000e-01	2.000000e-02	0.0	4.000000e-01	2.000000e-02	0.0	4.100000e-01	2.000000e-02	0.0	4.200000e-01	2.000000e-02	0.0	4.300000e-01	2.000000e-02	0.0	4.400000e-01	2.000000e-02	0.0	4.500000e-01	2.000000e-02	0.0	4.600000e-01	2.000000e-02	0.0	4.700000e-01	2.000000e-02	0.0	4.800000e-01	2.000000e-02	0.0	4.900000e-01	2.000000e-02	0.0	5.000000e-01	2.000000e-02	0.0	5.100000e-01	2.000000e-02	0.0	5.200000e-01	2.000000e-02	0.0	5.300000e-01	2.000000e-02	0.0	5.400000e-01	2.000000e-02	0.0	5.500000e-01	2.000000e-02	0.0	5.600000e-01	2.000000e-02	0.0	5.700000e-01	2.000000e-02	0.0	5.800000e-01	2.000000e-02	0.0	5.900000e-01	2.000000e-02	0.0	6.000000e-01	2.000000e-02	0.0	6.100000e-01	2.000000e-02	0.0	6.200000e-01	2.000000e-02	0.0	6.300000e-01	2.000000e-02	0.0	6.400000e-01	2.000000e-02	0.0	6.500000e-01	2.000000e-02	0.0	6.600000e-01	2.000000e-02	0.0	6.700000e-01	2.000000e-02	0.0	6.800000e-01	2.000000e-02	0.0	6.900000e-01	2.000000e-02	0.0	7.000000e-01	2.000000e-02	0.0	7.100000e-01	2.000000e-02	0.0	7.200000e-01	2.000000e-02	0.0	7.300000e-01	2.000000e-02	0.0	7.400000e-01	2.000000e-02	0.0	7.500000e-01	2.000000e-02	0.0	7.600000e-01	2.000000e-02	0.0	7.700000e-01	2.000000e-02	0.0	7.800000e-01	2.000000e-02	0.0	7.900000e-01	2.000000e-02	0.0	8.000000e-01	2.000000e-02	0.0	8.100000e-01	2.000000e-02	0.0	8.200000e-01	2.000000e-02	0.0	8.300000e-01	2.000000e-02	0.0	8.400000e-01	2.000000e-02	0.0	8.500000e-01	2.000000e-02	0.0	8.600000e-01	2.000000e-02	0.0	8.700000e-01	2.000000e-02	0.0	8.800000e-01	2.000000e-02	0.0	8.900000e-01	2.000000e-02	0.0	9.000000e-01	2.000000e-02	0.0	9.100000e-01	2.000000e-02	0.0	9.200000e-01	2.000000e-02	0.0	9.300000e-01	2.000000e-02	0.0	9.400000e-01	2.000000e-02	0.0	9.500000e-01	2.000000e-02	0.0	9.600000e-01	2.000000e-02	0.0	9.700000e-01	2.000000e-02	0.0	9.800000e-01	2.000000e-02	0.0	9.900000e-01	2.000000e-02	0.0	1.000000e+00	2.000000e-02	0.0	0.000000e+00	3.000000e-02	0.0	1.000000e-02	3.000000e-02	0.0	2.000000e-02	3.000000e-02	0.0	3.000000e-02	3.000000e-02	0.0	4.000000e-02	3.000000e-02	0.0	5.000000e-02	3.000000e-02	0.0	6.000000e-02	3.000000e-02	0.0	7.000000e-02	3.000000e-02	0.0	8.000000e-02	3.000000e-02	0.0	9.000000e-02	3.000000e-02	0.0	1.000000e-01	3.000000e-02	0.0	1.100000e-01	3.000000e-02	0.0	1.200000e-01	3.000000e-02	0.0	1.300000e-01	3.000000e-02	0.0	1.400000e-01	3.000000e-02	0.0	1.500000e-01	3.000000e-02	0.0	1.600000e-01	3.000000e-02	0.0	1.700000e-01	3.000000e-02	0.0	1.800000e-01	3.000000e-02	0.0	1.900000e-01	3.000000e-02	0.0	2.000000e-01	3.000000e-02	0.0	2.100000e-01	3.000000e-02	0.0	2.200000e-01	3.000000e-02	0.0	2.300000e-01	3.000000e-02	0.0	2.400000e-01	3.000000e-02	0.0	2.500000e-01	3.000000e-02	0.0	2.600000e-01	3.000000
[...]
POINT_DATA 10201

SCALARS Height double 1
LOOKUP_TABLE default
9.990485e-01	9.990656e-01	9.990622e-01	9.990628e-01	9.990638e-01	9.990642e-01	9.990633e-01	9.990575e-01	9.990512e-01	9.990455e-01	9.990400e-01	9.990363e-01	9.990346e-01	9.990341e-01	9.990329e-01	9.990301e-01	9.990241e-01	9.990189e-01	9.990147e-01	9.990103e-01	9.990046e-01	9.989941e-01	9.989850e-01	9.989749e-01	9.989697e-01	9.989629e-01	9.989535e-01	9.989397e-01	9.989224e-01	9.989032e-01	9.988833e-01	9.988639e-01	9.988454e-01	9.988276e-01	9.988112e-01	9.987946e-01	9.987770e-01	9.987579e-01	9.987370e-01	9.987142e-01	9.986895e-01	9.986629e-01	9.986342e-01	9.986036e-01	9.985710e-01	9.985360e-01	9.984982e-01	9.984571e-01	9.984124e-01	9.983641e-01	9.983120e-01	9.982562e-01	9.981964e-01	9.981319e-01	9.980618e-01	9.979854e-01	9.979016e-01	9.978091e-01	9.977057e-01	9.975885e-01	9.974547e-01	9.973067e-01	9.971480e-01	9.969786e-01	9.968178e-01	9.967518e-01	9.970265e-01	9.981978e-01	1.001052e+00	1.005529e+00	1.009833e+00	1.011912e+00	1.011815e+00	1.010983e+00	1.009757e+00	1.007675e+00	1.004431e+00	1.000705e+00	9.974444e-01	9.953408e-01	9.946627e-01	9.954586e-01	9.976557e-01	1.000934e+00	1.004561e+00	1.007592e+00	1.009502e+00	1.010665e+00	1.011504e+00	1.011459e+00	1.009104e+00	1.004546e+00	9.999463e-01	9.970499e-01	9.958628e-01	9.955828e-01	9.956499e-01	9.958127e-01	9.959748e-01	9.960834e-01	9.961432e-01	9.990627e-01	9.990768e-01	9.990666e-01	9.990663e-01	9.990667e-01	9.990665e-01	9.990649e-01	9.990607e-01	9.990553e-01	9.990484e-01	9.990401e-01	9.990324e-01	9.990265e-01	9.990227e-01	9.990204e-01	9.990186e-01	9.990151e-01	9.990105e-01	9.990049e-01	9.989984e-01	9.989911e-01	9.989815e-01	9.989751e-01	9.989659e-01	9.989544e-01	9.989453e-01	9.989338e-01	9.989202e-01	9.989050e-01	9.988887e-01	9.988726e-01	9.988571e-01	9.988424e-01	9.988278e-01	9.988120e-01	9.987955e-01	9.987777e-01	9.987583e-01	9.987371e-01	9.987140e-01	9.986890e-01	9.986618e-01	9.986328e-01	9.986017e-01	9.985685e-01	9.985328e-01	9.984944e-01	9.984528e-01	9.984076e-01	9.983587e-01	9.983062e-01	9.982499e-01	9.981897e-01	9.981248e-01	9.980544e-01	9.979777e-01	9.978937e-01	9.978009e-01	9.976970e-01	9.975789e-01	9.974436e-01	9.972941e-01	9.971349e-01	9.969583e-01	9.967737e-01	9.966274e-01	9.967472e-01	9.978443e-01	1.000930e+00	1.005785e+00	1.010087e+00	1.011950e+00	1.011752e+00	1.010963e+00	1.009949e+00	1.007842e+00	1.004496e+00	1.000608e+00	9.972451e-01	9.950915e-01	9.943994e-01	9.952144e-01	9.974689e-01	1.000860e+00	1.004642e+00	1.007763e+00	1.009674e+00	1.010629e+00	1.011443e+00	1.011511e+00	1.009366e+00	1.004786e+00	9.998008e-01	9.966881e-01	9.955839e-01	9.954616e-01	9.956104e-01	9.957953e-01	9.959627e-01	9.960708e-01	9.961331e-01	9.990697e-01	9.990832e-01	9.990718e-01	9.990705e-01	9.990700e-01	9.990696e-01	9.990678e-01	9.990639e-01	9.990578e-01	9.990508e-01	9.990434e-01	9.990369e-01	9.990319e-01	9.990286e-01	9.990254e-01	9.990209e-01	9.990150e-01	9.990104e-01	9.990044e-01	9.989977e-01	9.989911e-01	9.989811e-01	9.989724e-01	9.989657e-01	9.989565e-01	9.989475e-01	9.989395e-01	9.989269e-01	9.989115e-01	9.988943e-01	9.988765e-01	9.988591e-01	9.988427e-01	9.988272e-01	9.988122e-01	9.987963e-01	9.987791e-01	9.987602e-01	9.987394e-01	9.987168e-01	9.986924e-01	9.986660e-01	9.986377e-01	9.986071e-01	9.985742e-01	9.985387e-01	9.985003e-01	9.984589e-01	9.984139e-01	9.983653e-01	9.983128e-01	9.982563e-01	9.981957e-01	9.981306e-01	9.980602e-01	9.979837e-01	9.978996e-01	9.978063e-01	9.977018e-01	9.975832e-01	9.974470e-01	9.972960e-01	9.971354e-01	9.969561e-01	9.967608e-01	9.965940e-01	9.966946e-01	9.978372e-01	1.001076e+00	1.005958e+00	1.010082e+00	1.011780e+00	1.011543e+00	1.010788e+00	1.009944e+00	1.007941e+00	1.004535e+00	1.000687e+00	9.974007e-01	9.952825e-01	9.945977e-01	9.954039e-01	9.976185e-01	1.000936e+00	1.004691e+00	1.007868e+00	1.009643e+00	1.010446e+00	1.011235e+00	1.011348e+00	1.009370e+00	1.004968e+00	9.999522e-01	9.966894e-01	9.955365e-01	9.954285e-01	9.955947e-01	9.957885e-01	9.959577e-01	9.960649e-01	9.961241e-01	9.990673e-01	9.990785e-01	9.990690e-01	9.990667e-01	9.990660e-01	9.990656e-01	9.990643e-01	9.990611e-01	9.990562e-01	9.990504e-01	9.990432e-01	9.990364e-01	9.990309e-01	9.990269e-01	9.990238e-01	9.990204e-01	9.990160e-01	9.990110e-01	9.990056e-01	9.989993e-01	9.989928e-01	9.989829e-01	9.989740e-01	9.989668e-01	9.989567e-01	9.989486e-01	9.989390e-01	9.989263e-01	9.989108e-01	9.988931e-01	9.988749e-01	9.988576e-01	9.988412e-01	9.988258e-01	9.988104e-01	9.987947e-01	9.987774e-01	9.987583e-01	9.987372e-01	9.987144e-01	9.986898e-01	9.986635e-01	9.986352e-01	9.986045e-01	9.985713e-01	9.985355e-01	9.984968e-01	9.984550e-01	9.984100e-01	9.983614e-01	9.983087e-01	9.982519e-01	9.981908e-01	9.981252e-01	9.980545e-01	9.979778e-01	9.978934e-01	9.977996e-01	9.976944e-01	9.975750e-01	9.974378e-01	9.972849e-01	9.971226e-01	9.969409e-01	9.967391e-01	9.965557e-01	9.966282e-01	9.977708e-01	1.001075e+00	1.005974e+00	1.009974e+00	1.011558e+00	1.011292e+00	1.010585e+00	1.009911e+00	1.008112e+00	1.004716e+00	1.000843e+00	9.976031e-01	9.955466e-01	9.948828e-01	9.956650e-01	9.978160e-01	1.001090e+00	1.004877e+00	1.008025e+00	1.009585e+00	1.010228e+00	1.010977e+00	1.011126e+00	1.009263e+00	1.004982e+00	9.999598e-01	9.966407e-01	9.954807e-01	9.953916e-01	9.955696e-01	9.957675e-01	9.959362e-01	9.960412e-01	9.961002e-01	9.990674e-01	9.990779e-01	9.990683e-01	9.990656e-01	9.990642e-01	9.990632e-01	9.990620e-01	9.990587e-01	9.990549e-01	9.990495e-01	9.990426e-01	9.990355e-01	9.990295e-01	9.990251e-01	9.990216e-01	9.990176e-01	9.990135e-01	9.990082e-01	9.990029e-01	9.989968e-01	9.989906e-01	9.989806e-01	9.989731e-01	9.989652e-01	9.989552e-01	9.989474e-01	9.989377e-01	9.989251e-01	9.989092e-01	9.988910e-01	9.988722e-01	9.988543e-01	9.988377e-01	9.988225e-01	9.988074e-01	9.987918e-01	9.987749e-01	9.987558e-01	9.987348e-01	9.987119e-01	9.986874e-01	9.986612e-01	9.986330e-01	9.986025e-01	9.985693e-01	9.985333e-01	9.984945e-01	9.984526e-01	9.984075e-01	9.983588e-01	9.983061e-01	9.982490e-01	9.981873e-01	9.981209e-01	9.980496e-01	9.979723e-01	9.978874e-01	9.977930e-01	9.976870e-01	9.975667e-01	9.974285e-01	9.972742e-01	9.971092e-01	9.969241e-01	9.967177e-01	9.965250e-01	9.965844e-01	9.977224e-01	1.001029e+00	1.005877e+00	1.009778e+00	1.011260e+00	1.010992e+00	1.010367e+00	1.009833e+00	1.008253e+00	1.004982e+00	1.001111e+00	9.979058e-01	9.959182e-01	9.952871e-01	9.960363e-01	9.981210e-01	1.001366e+00	1.005137e+00	1.008136e+00	1.009484e+00	1.009992e+00	1.010664e+00	1.010823e+00	1.009062e+00	1.004881e+00	9.999286e-01	9.966193e-01	9.954514e-01	9.953609e-01	9.955416e-01	9.957410e-01	9.959083e-01	9.960111e-01	9.960698e-01	9.990664e-01	9.990763e-01	9.990665e-01	9.990639e-01	9.990622e-01	9.990608e-01	9.990596e-01	9.990568e-01	9.990538e-01	9.990489e-01	9.990419e-01	9.990346e-01	9.990281e-01	9.990232e-01	9.990193e-01	9.990151e-01	9.990106e-01	9.990052e-01	9.989998e-01	9.989943e-01	9.989884e-01	9.989786e-01	9.989738e-01	9.989635e-01	9.989543e-01	9.989474e-01	9.989378e-01	9.989247e-01	9.989084e-01	9.988897e-01	9.988708e-01	9.988522e-01	9.988354e-01	9.988197e-01	9.988048e-01	9.987895e-01	9.987725e-01	9.987536e-01	9.987325e-01	9.987094e-01	9.986847e-01	9.986581e-01	9.986297e-01	9.985989e-01	9.985655e-01	9.985294e-01	9.984905e-01	9.984483e-01	9.984030e-01	9.983541e-01	9.983010e-01	9.982435e-01	9.981812e-01	9.981140e-01	9.980416e-01	9.979634e-01	9.978777e-01	9.977826e-01	9.976758e-01	9.975545e-01	9.974153e-01	9.972595e-01	9.970924e-01	9.969036e-01	9.966916e-01	9.964930e-01	9.965517e-01	9.976890e-01	1.000946e+00	1.005676e+00	1.009451e+00	1.010873e+00	1.010660e+00	1.010143e+00	1.009731e+00	1.008353e+00	1.005313e+00	1.001524e+00	9.983400e-01	9.964058e-01	9.958092e-01	9.965259e-01	9.985617e-01	1.001780e+00	1.005445e+00	1.008205e+00	1.009353e+00	1.009752e+00	1.010310e+00	1.010422e+00	1.008729e+00	1.004680e+00	9.998655e-01	9.966193e-01	9.954400e-01	9.953316e-01	9.955084e-01	9.957076e-01	9.958730e-01	9.959736e-01	9.960319e-01	9.990638e-01	9.990726e-01	9.990638e-01	9.990617e-01	9.990603e-01	9.990590e-01	9.990578e-01	9.990554e-01	9.990521e-01	9.990474e-01	9.990409e-01	9.990335e-01	9.990269e-01	9.990217e-01	9.990173e-01	9.990128e-01	9.990072e-01	9.990013e-01	9.989960e-01	9.989910e-01	9.989854e-01	9.989762e-01	9.989720e-01	9.989618e-01	9.989530e-01	9.989462e-01	9.989362e-01	9.989225e-01	9.989058e-01	9.988874e-01	9.988680e-01	9.988495e-01	9.988323e-01	9.988165e-01	9.988014e-01	9.987859e-01	9.987691e-01	9.987503e-01	9.987294e-01	9.987064e-01	9.986815e-01	9.986547e-01	9.986259e-01	9.985949e-01	9.985615e-01	9.985254e-01	9.984864e-01	9.984443e-01	9.983987e-01	9.983491e-01	9.982955e-01	9.982373e-01	9.981744e-01	9.981062e-01	9.980327e-01	9.979531e-01	9.978660e-01	9.977697e-01	9.976618e-01	9.975393e-01	9.973985e-01	9.972412e-01	9.970722e-01	9.968796e-01	9.966609e-01	9.964576e-01	9.965248e-01	9.976683e-01	1.000837e+00	1.005372e+00	1.008995e+00	1.010403e+00	1.010305e+00	1.009917e+00	1.009607e+00	1.008421e+00	1.005663e+00	1.002042e+00	9.989099e-01	9.970186e-01	9.964474e-01	9.971365e-01	9.991322e-01	1.002290e+00	1.005763e+00	1.008240e+00	1.009211e+00	1.009506e+00	1.009926e+00	1.009930e+00	1.008265e+00	1.004386e+00	9.997792e-01	9.966350e-01	9.954426e-01	9.953043e-01	9.954707e-01	9.956678e-01	9.958310e-01	9.959293e-01	9.959876e-01	9.990567e-01	9.990662e-01	9.990588e-01	9.990578e-01	9.990572e-01	9.990561e-01	9.990552e-01	9.990533e-01	9.990498e-01	9.990452e-01	9.990389e-01	9.990324e-01	9.990263e-01	9.990212e-01	9.990166e-01	9.990114e-01	9.990053e-01	9.989988e-01	9.989939e-01	9.989880e-01	9.989830e-01	9.989748e-01	9.989697e-01	9.989607e-01	9.989531e-01	9.989447e-01	9.989335e-01	9.989190e-01	9.989019e-01	9.988831e-01	9.988641e-01	9.988456e-01	9.988284e-01	9.988124e-01	9.987969e-01	9.987812e-01	9.987644e-01	9.987457e-01	9.987250e-01	9.987021e-01	9.986770e-01	9.986498e-01	9.986205e-01	9.985892e-01	9.985557e-01	9.985197e-01	9.984808e-01	9.984387e-01	9.983929e-01	9.983430e-01	9.982889e-01	9.982302e-01	9.981666e-01	9.980978e-01	9.980233e-01	9.979425e-01	9.978540e-01	9.977562e-01	9.976467e-01	9.975225e-01	9.973798e-01	9.972210e-01	9.970492e-01	9.968509e-01	9.966254e-01	9.964187e-01	9.965032e-01	9.976551e-01	1.000697e+00	1.004981e+00	1.008433e+00	1.009867e+00	1.009936e+00	1.009689e+00	1.009465e+00	1.008463e+00	1.006019e+00	1.002650e+00	9.996214e-01	9.977572e-01	9.971908e-01	9.978712e-01	9.998360e-01	1.002876e+00	1.006081e+00	1.008251e+00	1.009055e+00	1.009253e+00	1.009522e+00	1.009366e+00	1.007694e+00	1.004009e+00	9.996677e-01	9.966573e-01	9.954529e-01	9.952771e-01	9.954286e-01	9.956224e-01	9.957829e-01	9.958791e-01	9.959363e-01	9.990502e-01	9.990626e-01	9.990543e-01	9.990543e-01	9.990540e-01	9.990543e-01	9.990529e-01	9.990507e-01	9.990471e-01	9.990418e-01	9.990355e-01	9.990295e-01	9.990242e-01	9.990195e-01	9.990149e-01	9.990095e-01	9.990031e-01	9.989969e-01	9.989903e-01	9.989862e-01	9.989811e-01	9.989746e-01	9.989676e-01	9.989585e-01	9.989526e-01	9.989430e-01	9.989307e-01	9.989154e-01	9.988978e-01	9.988789e-01	9.988600e-01	9.988419e-01	9.988247e-01	9.988085e-01	9.987924e-01	9.987762e-01	9.987591e-01	9.987406e-01	9.987201e-01	9.986972e-01	9.986720e-01	9.986445e-01	9.986149e-01	9.985831e-01	9.985492e-01	9.985128e-01	9.984736e-01	9.984312e-01	9.983850e-01	9.983346e-01	9.982798e-01	9.982205e-01	9.981563e-01	9.980869e-01	9.980117e-01	9.979298e-01	9.978402e-01	9.977411e-01	9.976301e-01	9.975039e-01	9.973591e-01	9.971988e-01	9.970223e-01	9.968169e-01	9.965841e-01	9.963784e-01	9.964879e-01	9.976408e-01	1.000519e+00	1.004510e+00	1.007785e+00	1.009285e+00	1.009553e+00	1.009446e+00	1.009303e+00	1.008483e+00	1.006384e+00	1.003331e+00	1.000455e+00	9.986196e-01	9.980478e-01	9.987296e-01	1.000655e+00	1.003525e+00	1.006401e+00	1.008236e+00	1.008876e+00	1.008992e+00	1.009103e+00	1.008747e+00	1.007032e+00	1.003555e+00	9.995227e-01	9.966771e-01	9.954686e-01	9.952507e-01	9.953824e-01	9.955709e-01	9.957285e-01	9.958211e-01	9.958768e-01	9.990471e-01	9.990581e-01	9.990506e-01	9.990514e-01	9.990516e-01	9.990522e-01	9.990505e-01	9.990482e-01	9.990435e-01	9.990375e-01	9.990310e-01	9.990255e-01	9.990211e-01	9.990168e-01	9.990121e-01	9.990064e-01	9.989997e-01	9.989938e-01	9.989879e-01	9.989830e-01	9.989788e-01	9.989731e-01	9.989653e-01	9.989599e-01	9.989507e-01	9.989409e-01	9.989278e-01	9.989119e-01	9.988939e-01	9.988750e-01	9.988564e-01	9.988384e-01	9.988210e-01	9.988043e-01	9.987876e-01	9.987709e-01	9.987536e-01	9.987349e-01	9.987143e-01	9.986915e-01	9.986664e-01	9.986388e-01	9.986091e-01	9.985771e-01	9.985427e-01	9.985057e-01	9.984659e-01	9.984228e-01	9.983759e-01	9.983249e-01	9.982694e-01	9.982092e-01	9.981440e-01	9.980736e-01	9.979973e-01	9.979144e-01	9.978237e-01	9.977234e-01	9.976109e-01	9.974827e-01	9.973355e-01	9.971727e-01	9.969894e-01	9.967769e-01	9.965371e-01	9.963363e-01	9.964762e-01	9.976185e-01	1.000300e+00	1.003968e+00	1.007064e+00	1.008668e+00	1.009159e+00	1.009185e+00	1.009109e+00	1.008485e+00	1.006766e+00	1.004075e+00	1.001389e+00	9.995990e-01	9.990251e-01	9.997049e-01	1.001571e+00	1.004229e+00	1.006728e+00	1.008197e+00	1.008666e+00	1.008719e+00	1.008667e+00	1.008084e+00	1.006291e+00	1.003032e+00	9.993411e-01	9.966892e-01	9.954871e-01	9.952237e-01	9.953301e-01	9.955109e-01	9.956644e-01	9.957542e-01	9.958083e-01	9.990438e-01	9.990540e-01	9.990470e-01	9.990483e-01	9.990489e-01	9.990494e-01	9.990471e-01	9.990443e-01	9.990390e-01	9.990322e-01	9.990258e-01	9.990209e-01	9.990170e-01	9.990133e-01	9.990085e-01	9.990026e-01	9.989961e-01	9.989904e-01	9.989848e-01	9.989791e-01	9.989744e-01	9.989694e-01	9.989643e-01	9.989561e-01	9.989475e-01	9.989369e-01	9.989235e-01	9.989074e-01	9.988897e-01	9.988711e-01	9.988528e-01	9.988347e-01	9.988171e-01	9.987999e-01	9.987827e-01	9.987656e-01	9.987477e-01	9.987287e-01	9.987079e-01	9.986849e-01	9.986598e-01	9.986324e-01	9.986026e-01	9.985704e-01	9.985356e-01	9.984980e-01	9.984574e-01	9.984135e-01	9.983658e-01	9.983141e-01	9.982579e-01	9.981969e-01	9.981308e-01	9.980591e-01	9.979814e-01	9.978972e-01	9.978052e-01	9.977036e-01	9.975894e-01	9.974584e-01	9.973081e-01	9.971416e-01	9.969505e-01	9.967278e-01	9.964805e-01	9.962879e-01	9.964606e-01	9.975802e-01	1.000043e+00	1.003369e+00	1.006290e+00	1.008032e+00	1.008755e+00	1.008907e+00	1.008882e+00	1.008476e+00	1.007163e+00	1.004870e+00	1.002408e+00	1.000687e+00	1.000121e+00	1.000789e+00	1.002571e+00	1.004978e+00	1.007060e+00	1.008140e+00	1.008426e+00	1.008429e+00	1.008223e+00	1.007392e+00	1.005492e+00	1.002450e+00	9.991224e-01	9.966862e-01	9.955024e-01	9.951929e-01	9.952707e-01	9.954420e-01	9.955923e-01	9.956799e-01	9.957320e-01	9.990404e-01	9.990500e-01	9.990431e-01	9.990449e-01	9.990451e-01	9.990450e-01	9.990423e-01	9.990389e-01	9.990333e-01	9.990266e-01	9.990208e-01	9.990164e-01	9.990131e-01	9.990098e-01	9.990056e-01	9.989999e-01	9.989940e-01	9.989886e-01	9.989835e-01	9.989797e-01	9.989746e-01	9.989682e-01	9.989605e-01	9.989526e-01	9.989429e-01	9.989317e-01	9.989178e-01	9.989022e-01	9.988845e-01	9.988665e-01	9.988485e-01	9.988304e-01	9.988125e-01	9.987950e-01	9.987773e-01	9.987599e-01	9.987418e-01	9.987224e-01	9.987012e-01	9.986780e-01	9.986527e-01	9.986251e-01	9.985951e-01	9.985625e-01	9.985272e-01	9.984888e-01	9.984474e-01	9.984025e-01	9.983540e-01	9.983016e-01	9.982448e-01	9.981832e-01	9.981162e-01	9.980434e-01	9.979645e-01	9.978790e-01	9.977857e-01	9.976824e-01	9.975659e-01	9.974316e-01	9.972767e-01	9.971045e-01	9.969047e-01	9.966703e-01	9.964133e-01	9.962303e-01	9.964333e-01	9.975160e-01	9.997459e-01	1.002727e+00	1.005493e+00	1.007401e+00	1.008347e+00	1.008604e+00	1.008633e+00	1.008459e+00	1.007567e+00	1.005703e+00	1.003501e+00	1.001880e+00	1.001333e+00	1.001975e+00	1.003643e+00	1.005759e+00	1.007392e+00	1.008069e+00	1.008162e+00	1.008116e+00	1.007778e+00	1.006698e+00	1.004663e+00	1.001825e+00	9.988656e-01	9.966580e-01	9.955065e-01	9.951546e-01	9.952018e-01	9.953631e-01	9.955111e-01	9.955972e-01	9.956471e-01	9.990369e-01	9.990461e-01	9.990383e-01	9.990405e-01	9.990398e-01	9.990386e-01	9.990357e-01	9.990322e-01	9.990268e-01	9.990208e-01	9.990161e-01	9.990123e-01	9.990091e-01	9.990062e-01	9.990025e-01	9.989976e-01	9.989921e-01	9.989867e-01	9.989813e-01	9.989759e-01	9.989696e-01	9.989638e-01	9.989562e-01	9.989476e-01	9.989373e-01	9.989253e-01	9.989111e-01	9.988950e-01	9.988781e-01	9.988607e-01	9.988428e-01	9.988249e-01	9.988069e-01	9.987887e-01	9.987710e-01	9.987535e-01	9.987354e-01	9.987160e-01	9.986947e-01	9.986713e-01	9.986456e-01	9.986175e-01	9.985870e-01	9.985538e-01	9.985176e-01	9.984784e-01	9.984360e-01	9.983901e-01	9.983406e-01	9.982872e-01	9.982296e-01	9.981673e-01	9.980995e-01	9.980258e-01	9.979461e-01	9.978595e-01	9.977648e-01	9.976595e-01	9.975402e-01	9.974017e-01	9.972415e-01	9.970620e-01	9.968514e-01	9.966031e-01	9.963347e-01	9.961594e-01	9.963868e-01	9.974167e-01	9.994065e-01	1.002061e+00	1.004712e+00	1.006793e+00	1.007930e+00	1.008272e+00	1.008378e+00	1.008434e+00	1.007967e+00	1.006561e+00	1.004660e+00	1.003172e+00	1.002658e+00	1.003259e+00	1.004776e+00	1.006560e+00	1.007716e+00	1.007996e+00	1.007886e+00	1.007769e+00	1.007329e+00	1.006030e+00	1.003841e+00	1.001173e+00	9.985681e-01	9.965944e-01	9.954904e-01	9.951033e-01	9.951210e-01	9.952728e-01	9.954198e-01	9.955055e-01	9.955534e-01	9.990334e-01	9.990421e-01	9.990330e-01	9.990353e-01	9.990334e-01	9.990310e-01	9.990277e-01	9.990246e-01	9.990202e-01	9.990153e-01	9.990114e-01	9.990082e-01	9.990053e-01	9.990025e-01	9.989995e-01	9.989959e-01	9.989908e-01	9.989855e-01	9.989793e-01	9.989726e-01	9.989653e-01	9.989590e-01	9.989515e-01	9.989423e-01	9.989312e-01	9.989184e-01	9.989034e-01	9.988876e-01	9.988710e-01	9.988539e-01	9.988369e-01	9.988184e-01	9.987998e-01	9.987815e-01	9.987636e-01	9.987460e-01	9.987280e-01	9.987088e-01	9.986877e-01	9.986643e-01	9.986383e-01	9.986097e-01	9.985784e-01	9.985444e-01	9.985074e-01	9.984672e-01	9.984237e-01	9.983767e-01	9.983260e-01	9.982716e-01	9.982130e-01	9.981496e-01	9.980808e-01	9.980063e-01	9.979257e-01	9.978380e-01	9.977416e-01	9.976339e-01	9.975110e-01	9.973678e-01	9.972011e-01	9.970127e-01	9.967892e-01	9.965249e-01	9.962424e-01	9.960700e-01	9.963112e-01	9.972722e-01	9.990255e-01	1.001397e+00	1.003992e+00	1.006217e+00	1.007486e+00	1.007916e+00	1.008127e+00	1.008406e+00	1.008354e+00	1.007430e+00	1.005871e+00	1.004551e+00	1.004083e+00	1.004628e+00	1.005956e+00	1.007365e+00	1.008032e+00	1.007923e+00	1.007614e+00	1.007393e+00	1.006855e+00	1.005404e+00	1.003072e+00	1.000513e+00	9.982240e-01	9.964875e-01	9.954475e-01	9.950338e-01	9.950250e-01	9.951694e-01	9.953178e-01	9.954045e-01	9.954511e-01	9.990292e-01	9.990382e-01	9.990273e-01	9.990295e-01	9.990260e-01	9.990229e-01	9.990193e-01	9.990169e-01	9.990137e-01	9.990100e-01	9.990063e-01	9.990041e-01	9.990014e-01	9.989990e-01	9.989960e-01	9.989932e-01	9.989896e-01	9.989834e-01	9.989763e-01	9.989680e-01	9.989594e-01	9.989524e-01	9.989452e-01	9.989357e-01	9.989244e-01	9.989103e-01	9.988954e-01	9.988794e-01	9.988645e-01	9.988472e-01	9.988299e-01	9.988117e-01	9.987929e-01	9.987743e-01	9.987558e-01	9.987379e-01	9.987198e-01	9.987007e-01	9.986797e-01	9.986562e-01	9.986299e-01	9.986007e-01	9.985687e-01	9.985339e-01	9.984960e-01	9.984548e-01	9.984103e-01	9.983623e-01	9.983107e-01	9.982553e-01	9.981956e-01	9.981311e-01	9.980612e-01	9.979856e-01	9.979038e-01	9.978143e-01	9.977156e-01	9.976046e-01	9.974774e-01	9.973285e-01	9.971541e-01	9.969554e-01	9.967171e-01	9.964335e-01	9.961318e-01	9.959538e-01	9.961989e-01	9.970776e-01	9.986124e-01	1.000785e+00	1.003371e+00	1.005660e+00	1.007002e+00	1.007553e+00	1.007890e+00	1.008381e+00	1.008724e+00	1.008292e+00	1.007113e+00	1.005997e+00	1.005590e+00	1.006064e+00	1.007163e+00	1.008160e+00	1.008333e+00	1.007860e+00	1.007353e+00	1.007001e+00	1.006339e+00	1.004812e+00	1.002405e+00	9.998865e-01	9.978381e-01	9.963292e-01	9.953662e-01	9.949401e-01	9.949104e-01	9.950515e-01	9.952043e-01	9.952937e-01	9.953399e-01	9.990260e-01	9.990336e-01	9.990207e-01	9.990231e-01	9.990186e-01	9.990149e-01	9.990116e-01	9.990097e-01	9.990075e-01	9.990046e-01	9.990014e-01	9.989991e-01	9.989970e-01	9.989955e-01	9.989929e-01	9.989884e-01	9.989856e-01	9.989805e-01	9.989715