# vtk DataFile Version 3.0
vtk output
ASCII
DATASET STRUCTURED_GRID
DIMENSIONS 101 101 1
POINTS 10201 double
0.000000e+00	0.000000e+00	0.0	1.000000e-02	0.000000e+00	0.0	2.000000e-02	0.000000e+00	0.0	3.000000e-02	0.000000e+00	0.0	4.000000e-02	0.000000e+00	0.0	5.000000e-02	0.000000e+00	0.0	6.000000e-02	0.000000e+00	0.0	7.000000e-02	0.000000e+00	0.0	8.000000e-02	0.000000e+00	0.0	9.000000e-02	0.000000e+00	0.0	1.000000e-01	0.000000e+00	0.0	1.100000e-01	0.000000e+00	0.0	1.200000e-01	0.000000e+00	0.0	1.300000e-01	0.000000e+00	0.0	1.400000e-01	0.000000e+00	0.0	1.500000e-01	0.000000e+00	0.0	1.600000e-01	0.000000e+00	0.0	1.700000e-01	0.000000e+00	0.0	1.800000e-01	0.000000e+00	0.0	1.900000e-01	0.000000e+00	0.0	2.000000e-01	0.000000e+00	0.0	2.100000e-01	0.000000e+00	0.0	2.200000e-01	0.000000e+00	0.0	2.300000e-01	0.000000e+00	0.0	2.400000e-01	0.000000e+00	0.0	2.500000e-01	0.000000e+00	0.0	2.600000e-01	0.000000e+00	0.0	2.700000e-01	0.000000e+00	0.0	2.800000e-01	0.000000e+00	0.0	2.900000e-01	0.000000e+00	0.0	3.000000e-01	0.000000e+00	0.0	3.100000e-01	0.000000e+00	0.0	3.200000e-01	0.000000e+00	0.0	3.300000e-01	0.000000e+00	0.0	3.400000e-01	0.000000e+00	0.0	3.500000e-01	0.000000e+00	0.0	3.600000e-01	0.000000e+00	0.0	3.700000e-01	0.000000e+00	0.0	3.800000e-01	0.000000e+00	0.0	3.900000e-01	0.000000e+00	0.0	4.000000e-01	0.000000e+00	0.0	4.100000e-01	0.000000e+00	0.0	4.200000e-01	0.000000e+00	0.0	4.300000e-01	0.000000e+00	0.0	4.400000e-01	0.000000e+00	0.0	4.500000e-01	0.000000e+00	0.0	4.600000e-01	0.000000e+00	0.0	4.700000e-01	0.000000e+00	0.0	4.800000e-01	0.000000e+00	0.0	4.900000e-01	0.000000e+00	0.0	5.000000e-01	0.000000e+00	0.0	5.100000e-01	0.000000e+00	0.0	5.200000e-01	0.000000e+00	0.0	5.300000e-01	0.000000e+00	0.0	5.400000e-01	0.000000e+00	0.0	5.500000e-01	0.000000e+00	0.0	5.600000e-01	0.000000e+00	0.0	5.700000e-01	0.000000e+00	0.0	5.800000e-01	0.000000e+00	0.0	5.900000e-01	0.000000e+00	0.0	6.000000e-01	0.000000e+00	0.0	6.100000e-01	0.000000e+00	0.0	6.200000e-01	0.000000e+00	0.0	6.300000e-01	0.000000e+00	0.0	6.400000e-01	0.000000e+00	0.0	6.500000e-01	0.000000e+00	0.0	6.600000e-01	0.000000e+00	0.0	6.700000e-01	0.000000e+00	0.0	6.800000e-01	0.000000e+00	0.0	6.900000e-01	0.000000e+00	0.0	7.000000e-01	0.000000e+00	0.0	7.100000e-01	0.000000e+00	0.0	7.200000e-01	0.000000e+00	0.0	7.300000e-01	0.000000e+00	0.0	7.400000e-01	0.000000e+00	0.0	7.500000e-01	0.000000e+00	0.0	7.600000e-01	0.000000e+00	0.0	7.700000e-01	0.000000e+00	0.0	7.800000e-01	0.000000e+00	0.0	7.900000e-01	0.000000e+00	0.0	8.000000e-01	0.000000e+00	0.0	8.100000e-01	0.000000e+00	0.0	8.200000e-01	0.000000e+00	0.0	8.300000e-01	0.000000e+00	0.0	8.400000e-01	0.000000e+00	0.0	8.500000e-01	0.000000e+00	0.0	8.600000e-01	0.000000e+00	0.0	8.700000e-01	0.000000e+00	0.0	8.800000e-01	0.000000e+00	0.0	8.900000e-01	0.000000e+00	0.0	9.000000e-01	0.000000e+00	0.0	9.100000e-01	0.000000e+00	0.0	9.200000e-01	0.000000e+00	0.0	9.300000e-01	0.000000e+00	0.0	9.400000e-01	0.000000e+00	0.0	9.500000e-01	0.000000e+00	0.0	9.600000e-01	0.000000e+00	0.0	9.700000e-01	0.000000e+00	0.0	9.800000e-01	0.000000e+00	0.0	9.900000e-01	0.000000e+00	0.0	1.000000e+00	0.000000e+00	0.0	0.000000e+00	1.000000e-02	0.0	1.000000e-02	1.000000e-02	0.0	2.000000e-02	1.000000e-02	0.0	3.000000e-02	1.000000e-02	0.0	4.000000e-02	1.000000e-02	0.0	5.000000e-02	1.000000e-02	0.0	6.000000e-02	1.000000e-02	0.0	7.000000e-02	1.000000e-02	0.0	8.000000e-02	1.000000e-02	0.0	9.000000e-02	1.000000e-02	0.0	1.000000e-01	1.000000e-02	0.0	1.100000e-01	1.000000e-02	0.0	1.200000e-01	1.000000e-02	0.0	1.300000e-01	1.000000e-02	0.0	1.400000e-01	1.000000e-02	0.0	1.500000e-01	1.000000e-02	0.0	1.600000e-01	1.000000e-02	0.0	1.700000e-01	1.000000e-02	0.0	1.800000e-01	1.000000e-02	0.0	1.900000e-01	1.000000e-02	0.0	2.000000e-01	1.000000e-02	0.0	2.100000e-01	1.000000e-02	0.0	2.200000e-01	1.000000e-02	0.0	2.300000e-01	1.000000e-02	0.0	2.400000e-01	1.000000e-02	0.0	2.500000e-01	1.000000e-02	0.0	2.600000e-01	1.000000e-02	0.0	2.700000e-01	1.000000e-02	0.0	2.800000e-01	1.000000e-02	0.0	2.900000e-01	1.000000e-02	0.0	3.000000e-01	1.000000e-02	0.0	3.100000e-01	1.000000e-02	0.0	3.200000e-01	1.000000e-02	0.0	3.300000e-01	1.000000e-02	0.0	3.400000e-01	1.000000e-02	0.0	3.500000e-01	1.000000e-02	0.0	3.600000e-01	1.000000e-02	0.0	3.700000e-01	1.000000e-02	0.0	3.800000e-01	1.000000e-02	0.0	3.900000e-01	1.000000e-02	0.0	4.000000e-01	1.000000e-02	0.0	4.100000e-01	1.000000e-02	0.0	4.200000e-01	1.000000e-02	0.0	4.300000e-01	1.000000e-02	0.0	4.400000e-01	1.000000e-02	0.0	4.500000e-01	1.000000e-02	0.0	4.600000e-01	1.000000e-02	0.0	4.700000e-01	1.000000e-02	0.0	4.800000e-01	1.000000e-02	0.0	4.900000e-01	1.000000e-02	0.0	5.000000e-01	1.000000e-02	0.0	5.100000e-01	1.000000e-02	0.0	5.200000e-01	1.000000e-02	0.0	5.300000e-01	1.000000e-02	0.0	5.400000e-01	1.000000e-02	0.0	5.500000e-01	1.000000e-02	0.0	5.600000e-01	1.000000e-02	0.0	5.700000e-01	1.000000e-02	0.0	5.800000e-01	1.000000e-02	0.0	5.900000e-01	1.000000e-02	0.0	6.000000e-01	1.000000e-02	0.0	6.100000e-01	1.000000e-02	0.0	6.200000e-01	1.000000e-02	0.0	6.300000e-01	1.000000e-02	0.0	6.400000e-01	1.000000e-02	0.0	6.500000e-01	1.000000e-02	0.0	6.600000e-01	1.000000e-02	0.0	6.700000e-01	1.000000e-02	0.0	6.800000e-01	1.000000e-02	0.0	6.900000e-01	1.000000e-02	0.0	7.000000e-01	1.000000e-02	0.0	7.100000e-01	1.000000e-02	0.0	7.200000e-01	1.000000e-02	0.0	7.300000e-01	1.000000e-02	0.0	7.400000e-01	1.000000e-02	0.0	7.500000e-01	1.000000e-02	0.0	7.600000e-01	1.000000e-02	0.0	7.700000e-01	1.000000e-02	0.0	7.800000e-01	1.000000e-02	0.0	7.900000e-01	1.000000e-02	0.0	8.000000e-01	1.000000e-02	0.0	8.100000e-01	1.000000e-02	0.0	8.200000e-01	1.000000e-02	0.0	8.300000e-01	1.000000e-02	0.0	8.400000e-01	1.000000e-02	0.0	8.500000e-01	1.000000e-02	0.0	8.600000e-01	1.000000e-02	0.0	8.700000e-01	1.000000e-02	0.0	8.800000e-01	1.000000e-02	0.0	8.900000e-01	1.000000e-02	0.0	9.000000e-01	1.000000e-02	0.0	9.100000e-01	1.000000e-02	0.0	9.200000e-01	1.000000e-02	0.0	9.300000e-01	1.000000e-02	0.0	9.400000e-01	1.000000e-02	0.0	9.500000e-01	1.000000e-02	0.0	9.600000e-01	1.000000e-02	0.0	9.700000e-01	1.000000e-02	0.0	9.800000e-01	1.000000e-02	0.0	9.900000e-01	1.000000e-02	0.0	1.000000e+00	1.000000e-02	0.0	0.000000e+00	2.000000e-02	0.0	1.000000e-02	2.000000e-02	0.0	2.000000e-02	2.000000e-02	0.0	3.000000e-02	2.000000e-02	0.0	4.000000e-02	2.000000e-02	0.0	5.000000e-02	2.000000e-02	0.0	6.000000e-02	2.000000e-02	0.0	7.000000e-02	2.000000e-02	0.0	8.000000e-02	2.000000e-02	0.0	9.000000e-02	2.000000e-02	0.0	1.000000e-01	2.000000e-02	0.0	1.100000e-01	2.000000e-02	0.0	1.200000e-01	2.000000e-02	0.0	1.300000e-01	2.000000e-02	0.0	1.400000e-01	2.000000e-02	0.0	1.500000e-01	2.000000e-02	0.0	1.600000e-01	2.000000e-02	0.0	1.700000e-01	2.000000e-02	0.0	1.800000e-01	2.000000e-02	0.0	1.900000e-01	2.000000e-02	0.0	2.000000e-01	2.000000e-02	0.0	2.100000e-01	2.000000e-02	0.0	2.200000e-01	2.000000e-02	0.0	2.300000e-01	2.000000e-02	0.0	2.400000e-01	2.000000e-02	0.0	2.500000e-01	2.000000e-02	0.0	2.600000e-01	2.000000e-02	0.0	2.700000e-01	2.000000e-02	0.0	2.800000e-01	2.000000e-02	0.0	2.900000e-01	2.000000e-02	0.0	3.000000e-01	2.000000e-02	0.0	3.100000e-01	2.000000e-02	0.0	3.200000e-01	2.000000e-02	0.0	3.300000e-01	2.000000e-02	0.0	3.400000e-01	2.000000e-02	0.0	3.500000e-01	2.000000e-02	0.0	3.600000e-01	2.000000e-02	0.0	3.700000e-01	2.000000e-02	0.0	3.800000e-01	2.000000e-02	0.0	3.900000e-01	2.000000e-02	0.0	4.000000e-01	2.000000e-02	0.0	4.100000e-01	2.000000e-02	0.0	4.200000e-01	2.000000e-02	0.0	4.300000e-01	2.000000e-02	0.0	4.400000e-01	2.000000e-02	0.0	4.500000e-01	2.000000e-02	0.0	4.600000e-01	2.000000e-02	0.0	4.700000e-01	2.000000e-02	0.0	4.800000e-01	2.000000e-02	0.0	4.900000e-01	2.000000e-02	0.0	5.000000e-01	2.000000e-02	0.0	5.100000e-01	2.000000e-02	0.0	5.200000e-01	2.000000e-02	0.0	5.300000e-01	2.000000e-02	0.0	5.400000e-01	2.000000e-02	0.0	5.500000e-01	2.000000e-02	0.0	5.600000e-01	2.000000e-02	0.0	5.700000e-01	2.000000e-02	0.0	5.800000e-01	2.000000e-02	0.0	5.900000e-01	2.000000e-02	0.0	6.000000e-01	2.000000e-02	0.0	6.100000e-01	2.000000e-02	0.0	6.200000e-01	2.000000e-02	0.0	6.300000e-01	2.000000e-02	0.0	6.400000e-01	2.000000e-02	0.0	6.500000e-01	2.000000e-02	0.0	6.600000e-01	2.000000e-02	0.0	6.700000e-01	2.000000e-02	0.0	6.800000e-01	2.000000e-02	0.0	6.900000e-01	2.000000e-02	0.0	7.000000e-01	2.000000e-02	0.0	7.100000e-01	2.000000e-02	0.0	7.200000e-01	2.000000e-02	0.0	7.300000e-01	2.000000e-02	0.0	7.400000e-01	2.000000e-02	0.0	7.500000e-01	2.000000e-02	0.0	7.600000e-01	2.000000e-02	0.0	7.700000e-01	2.000000e-02	0.0	7.800000e-01	2.000000e-02	0.0	7.900000e-01	2.000000e-02	0.0	8.000000e-01	2.000000e-02	0.0	8.100000e-01	2.000000e-02	0.0	8.200000e-01	2.000000e-02	0.0	8.300000e-01	2.000000e-02	0.0	8.400000e-01	2.000000e-02	0.0	8.500000e-01	2.000000e-02	0.0	8.600000e-01	2.000000e-02	0.0	8.700000e-01	2.000000e-02	0.0	8.800000e-01	2.000000e-02	0.0	8.900000e-01	2.000000e-02	0.0	9.000000e-01	2.000000e-02	0.0	9.100000e-01	2.000000e-02	0.0	9.200000e-01	2.000000e-02	0.0	9.300000e-01	2.000000e-02	0.0	9.400000e-01	2.000000e-02	0.0	9.500000e-01	2.000000e-02	0.0	9.600000e-01	2.000000e-02	0.0	9.700000e-01	2.000000e-02	0.0	9.800000e-01	2.000000e-02	0.0	9.900000e-01	2.000000e-02	0.0	1.000000e+00	2.000000e-02	0.0	0.000000e+00	3.000000e-02	0.0	1.000000e-02	3.000000e-02	0.0	2.000000e-02	3.000000e-02	0.0	3.000000e-02	3.000000e-02	0.0	4.000000e-02	3.000000e-02	0.0	5.000000e-02	3.000000e-02	0.0	6.000000e-02	3.000000e-02	0.0	7.000000e-02	3.000000e-02	0.0	8.000000e-02	3.000000e-02	0.0	9.000000e-02	3.000000e-02	0.0	1.000000e-01	3.000000e-02	0.0	1.100000e-01	3.000000e-02	0.0	1.200000e-01	3.000000e-02	0.0	1.300000e-01	3.000000e-02	0.0	1.400000e-01	3.000000e-02	0.0	1.500000e-01	3.000000e-02	0.0	1.600000e-01	3.000000e-02	0.0	1.700000e-01	3.000000e-02	0.0	1.800000e-01	3.000000e-02	0.0	1.900000e-01	3.000000e-02	0.0	2.000000e-01	3.000000e-02	0.0	2.100000e-01	3.000000e-02	0.0	2.200000e-01	3.000000e-02	0.0	2.300000e-01	3.000000e-02	0.0	2.400000e-01	3.000000e-02	0.0	2.500000e-01	3.000000e-02	0.0	2.600000e-01	3.000000
[...]
POINT_DATA 10201

SCALARS Height double 1
LOOKUP_TABLE default
9.994586e-01	9.994736e-01	9.994678e-01	9.994659e-01	9.994664e-01	9.994686e-01	9.994701e-01	9.994692e-01	9.994673e-01	9.994683e-01	9.994687e-01	9.994671e-01	9.994645e-01	9.994633e-01	9.994643e-01	9.994659e-01	9.994660e-01	9.994648e-01	9.994662e-01	9.994655e-01	9.994644e-01	9.994594e-01	9.994526e-01	9.994475e-01	9.994465e-01	9.994435e-01	9.994401e-01	9.994359e-01	9.994318e-01	9.994288e-01	9.994305e-01	9.994487e-01	9.995181e-01	9.997325e-01	1.000321e+00	1.001736e+00	1.004507e+00	1.008552e+00	1.012783e+00	1.015652e+00	1.016843e+00	1.017030e+00	1.016760e+00	1.015782e+00	1.013779e+00	1.010733e+00	1.007070e+00	1.003241e+00	9.996314e-01	9.964939e-01	9.939916e-01	9.922287e-01	9.911977e-01	9.907614e-01	9.906801e-01	9.907447e-01	9.909953e-01	9.915469e-01	9.924208e-01	9.934665e-01	9.944671e-01	9.952923e-01	9.959180e-01	9.963779e-01	9.967173e-01	9.969707e-01	9.971561e-01	9.972821e-01	9.973554e-01	9.973885e-01	9.973995e-01	9.974101e-01	9.974585e-01	9.976312e-01	9.981417e-01	9.994309e-01	1.002079e+00	1.006152e+00	1.010633e+00	1.013859e+00	1.015294e+00	1.015553e+00	1.015324e+00	1.014434e+00	1.012594e+00	1.009702e+00	1.006125e+00	1.002295e+00	9.986014e-01	9.953206e-01	9.926333e-01	9.906520e-01	9.893818e-01	9.887120e-01	9.884253e-01	9.882676e-01	9.882207e-01	9.883563e-01	9.886755e-01	9.889734e-01	9.893398e-01	9.994638e-01	9.994860e-01	9.994684e-01	9.994685e-01	9.994695e-01	9.994721e-01	9.994724e-01	9.994727e-01	9.994725e-01	9.994718e-01	9.994697e-01	9.994659e-01	9.994611e-01	9.994570e-01	9.994548e-01	9.994554e-01	9.994542e-01	9.994598e-01	9.994588e-01	9.994567e-01	9.994541e-01	9.994493e-01	9.994444e-01	9.994377e-01	9.994289e-01	9.994255e-01	9.994211e-01	9.994170e-01	9.994134e-01	9.994104e-01	9.994089e-01	9.994136e-01	9.994428e-01	9.995680e-01	1.000028e+00	1.001395e+00	1.004362e+00	1.008741e+00	1.012978e+00	1.015733e+00	1.016857e+00	1.017047e+00	1.016905e+00	1.015977e+00	1.013871e+00	1.010734e+00	1.006978e+00	1.003100e+00	9.994673e-01	9.963100e-01	9.938108e-01	9.920873e-01	9.911233e-01	9.907396e-01	9.906684e-01	9.906988e-01	9.909258e-01	9.915070e-01	9.924112e-01	9.934684e-01	9.944697e-01	9.952928e-01	9.959165e-01	9.963752e-01	9.967142e-01	9.969672e-01	9.971524e-01	9.972778e-01	9.973502e-01	9.973823e-01	9.973905e-01	9.973901e-01	9.973990e-01	9.974812e-01	9.978536e-01	9.990657e-01	1.001879e+00	1.006304e+00	1.010846e+00	1.013956e+00	1.015306e+00	1.015558e+00	1.015432e+00	1.014636e+00	1.012699e+00	1.009715e+00	1.006044e+00	1.002159e+00	9.984366e-01	9.951318e-01	9.924417e-01	9.904930e-01	9.892850e-01	9.886731e-01	9.884047e-01	9.882267e-01	9.881520e-01	9.883115e-01	9.886655e-01	9.889694e-01	9.893331e-01	9.994697e-01	9.994908e-01	9.994724e-01	9.994732e-01	9.994747e-01	9.994765e-01	9.994767e-01	9.994750e-01	9.994723e-01	9.994702e-01	9.994684e-01	9.994666e-01	9.994646e-01	9.994625e-01	9.994604e-01	9.994590e-01	9.994584e-01	9.994614e-01	9.994629e-01	9.994637e-01	9.994626e-01	9.994561e-01	9.994479e-01	9.994414e-01	9.994353e-01	9.994317e-01	9.994301e-01	9.994285e-01	9.994257e-01	9.994218e-01	9.994184e-01	9.994213e-01	9.994489e-01	9.995723e-01	1.000039e+00	1.001456e+00	1.004519e+00	1.008906e+00	1.013029e+00	1.015650e+00	1.016740e+00	1.016947e+00	1.016854e+00	1.016018e+00	1.013856e+00	1.010668e+00	1.006968e+00	1.003167e+00	9.995709e-01	9.964353e-01	9.939551e-01	9.922334e-01	9.912490e-01	9.908313e-01	9.907300e-01	9.907419e-01	9.909350e-01	9.915178e-01	9.924372e-01	9.934822e-01	9.944665e-01	9.952837e-01	9.959102e-01	9.963740e-01	9.967169e-01	9.969712e-01	9.971558e-01	9.972802e-01	9.973518e-01	9.973831e-01	9.973899e-01	9.973878e-01	9.973964e-01	9.974781e-01	9.978571e-01	9.991187e-01	1.002044e+00	1.006494e+00	1.010916e+00	1.013878e+00	1.015178e+00	1.015452e+00	1.015361e+00	1.014669e+00	1.012697e+00	1.009647e+00	1.006020e+00	1.002214e+00	9.985347e-01	9.952524e-01	9.925796e-01	9.906303e-01	9.894039e-01	9.887616e-01	9.884613e-01	9.882657e-01	9.881572e-01	9.883072e-01	9.886734e-01	9.889775e-01	9.893348e-01	9.994667e-01	9.994869e-01	9.994678e-01	9.994687e-01	9.994707e-01	9.994727e-01	9.994734e-01	9.994720e-01	9.994705e-01	9.994693e-01	9.994680e-01	9.994666e-01	9.994644e-01	9.994617e-01	9.994595e-01	9.994582e-01	9.994573e-01	9.994603e-01	9.994613e-01	9.994615e-01	9.994599e-01	9.994538e-01	9.994464e-01	9.994397e-01	9.994331e-01	9.994310e-01	9.994274e-01	9.994251e-01	9.994220e-01	9.994180e-01	9.994142e-01	9.994155e-01	9.994381e-01	9.995469e-01	9.999896e-01	1.001403e+00	1.004518e+00	1.008946e+00	1.013037e+00	1.015582e+00	1.016640e+00	1.016854e+00	1.016779e+00	1.016048e+00	1.013923e+00	1.010675e+00	1.006969e+00	1.003193e+00	9.996171e-01	9.964867e-01	9.940069e-01	9.922851e-01	9.912951e-01	9.908667e-01	9.907605e-01	9.907686e-01	9.909276e-01	9.914842e-01	9.924125e-01	9.934599e-01	9.944364e-01	9.952518e-01	9.958828e-01	9.963520e-01	9.966987e-01	9.969553e-01	9.971409e-01	9.972653e-01	9.973369e-01	9.973682e-01	9.973751e-01	9.973725e-01	9.973782e-01	9.974500e-01	9.978102e-01	9.990701e-01	1.002043e+00	1.006536e+00	1.010927e+00	1.013806e+00	1.015070e+00	1.015351e+00	1.015273e+00	1.014679e+00	1.012767e+00	1.009660e+00	1.006018e+00	1.002238e+00	9.985787e-01	9.953001e-01	9.926263e-01	9.906770e-01	9.894419e-01	9.887884e-01	9.884823e-01	9.882813e-01	9.881431e-01	9.882575e-01	9.886202e-01	9.889281e-01	9.892838e-01	9.994671e-01	9.994862e-01	9.994665e-01	9.994675e-01	9.994688e-01	9.994707e-01	9.994714e-01	9.994701e-01	9.994685e-01	9.994675e-01	9.994663e-01	9.994649e-01	9.994630e-01	9.994608e-01	9.994588e-01	9.994570e-01	9.994565e-01	9.994582e-01	9.994575e-01	9.994568e-01	9.994545e-01	9.994488e-01	9.994426e-01	9.994376e-01	9.994318e-01	9.994289e-01	9.994260e-01	9.994230e-01	9.994193e-01	9.994149e-01	9.994111e-01	9.994121e-01	9.994320e-01	9.995330e-01	9.999595e-01	1.001363e+00	1.004497e+00	1.008940e+00	1.012994e+00	1.015493e+00	1.016526e+00	1.016740e+00	1.016675e+00	1.016032e+00	1.014010e+00	1.010741e+00	1.007000e+00	1.003249e+00	9.997012e-01	9.965837e-01	9.941017e-01	9.923717e-01	9.913694e-01	9.909275e-01	9.908098e-01	9.908135e-01	9.909428e-01	9.914483e-01	9.923639e-01	9.934218e-01	9.943985e-01	9.952125e-01	9.958475e-01	9.963235e-01	9.966766e-01	9.969374e-01	9.971250e-01	9.972497e-01	9.973210e-01	9.973523e-01	9.973597e-01	9.973580e-01	9.973644e-01	9.974344e-01	9.977874e-01	9.990444e-01	1.002035e+00	1.006540e+00	1.010894e+00	1.013718e+00	1.014948e+00	1.015227e+00	1.015160e+00	1.014635e+00	1.012839e+00	1.009731e+00	1.006048e+00	1.002284e+00	9.986542e-01	9.953904e-01	9.927144e-01	9.907577e-01	9.895129e-01	9.888401e-01	9.885194e-01	9.883105e-01	9.881445e-01	9.882063e-01	9.885406e-01	9.888516e-01	9.892072e-01	9.994694e-01	9.994887e-01	9.994686e-01	9.994690e-01	9.994699e-01	9.994708e-01	9.994712e-01	9.994710e-01	9.994694e-01	9.994672e-01	9.994651e-01	9.994630e-01	9.994614e-01	9.994603e-01	9.994593e-01	9.994586e-01	9.994583e-01	9.994600e-01	9.994580e-01	9.994565e-01	9.994537e-01	9.994484e-01	9.994433e-01	9.994391e-01	9.994340e-01	9.994308e-01	9.994272e-01	9.994230e-01	9.994182e-01	9.994136e-01	9.994103e-01	9.994116e-01	9.994301e-01	9.995249e-01	9.999397e-01	1.001332e+00	1.004464e+00	1.008900e+00	1.012920e+00	1.015385e+00	1.016401e+00	1.016615e+00	1.016558e+00	1.015989e+00	1.014095e+00	1.010866e+00	1.007088e+00	1.003333e+00	9.998209e-01	9.967249e-01	9.942386e-01	9.924896e-01	9.914620e-01	9.909980e-01	9.908679e-01	9.908658e-01	9.909660e-01	9.914118e-01	9.922948e-01	9.933624e-01	9.943511e-01	9.951692e-01	9.958089e-01	9.962940e-01	9.966559e-01	9.969224e-01	9.971125e-01	9.972377e-01	9.973089e-01	9.973406e-01	9.973490e-01	9.973484e-01	9.973563e-01	9.974276e-01	9.977800e-01	9.990349e-01	1.002023e+00	1.006513e+00	1.010823e+00	1.013604e+00	1.014815e+00	1.015093e+00	1.015031e+00	1.014564e+00	1.012897e+00	1.009853e+00	1.006137e+00	1.002358e+00	9.987613e-01	9.955231e-01	9.928459e-01	9.908713e-01	9.896018e-01	9.889069e-01	9.885652e-01	9.883459e-01	9.881527e-01	9.881556e-01	9.884426e-01	9.887446e-01	9.891035e-01	9.994706e-01	9.994884e-01	9.994706e-01	9.994711e-01	9.994718e-01	9.994716e-01	9.994714e-01	9.994704e-01	9.994690e-01	9.994667e-01	9.994635e-01	9.994610e-01	9.994594e-01	9.994589e-01	9.994592e-01	9.994599e-01	9.994599e-01	9.994626e-01	9.994611e-01	9.994591e-01	9.994561e-01	9.994510e-01	9.994466e-01	9.994410e-01	9.994357e-01	9.994319e-01	9.994272e-01	9.994218e-01	9.994166e-01	9.994124e-01	9.994100e-01	9.994118e-01	9.994282e-01	9.995190e-01	9.999251e-01	1.001304e+00	1.004419e+00	1.008828e+00	1.012813e+00	1.015251e+00	1.016259e+00	1.016478e+00	1.016430e+00	1.015922e+00	1.014158e+00	1.011020e+00	1.007236e+00	1.003465e+00	9.999791e-01	9.969081e-01	9.944189e-01	9.926437e-01	9.915802e-01	9.910840e-01	9.909339e-01	9.909225e-01	9.909952e-01	9.913771e-01	9.922120e-01	9.932807e-01	9.942906e-01	9.951191e-01	9.957666e-01	9.962618e-01	9.966334e-01	9.969065e-01	9.970997e-01	9.972261e-01	9.972978e-01	9.973302e-01	9.973398e-01	9.973406e-01	9.973505e-01	9.974251e-01	9.977819e-01	9.990354e-01	1.002003e+00	1.006451e+00	1.010713e+00	1.013462e+00	1.014665e+00	1.014947e+00	1.014890e+00	1.014472e+00	1.012932e+00	1.009994e+00	1.006282e+00	1.002482e+00	9.989033e-01	9.956925e-01	9.930193e-01	9.910220e-01	9.897160e-01	9.889835e-01	9.886165e-01	9.883829e-01	9.881610e-01	9.881027e-01	9.883308e-01	9.886094e-01	9.889696e-01	9.994657e-01	9.994845e-01	9.994707e-01	9.994717e-01	9.994718e-01	9.994717e-01	9.994704e-01	9.994680e-01	9.994661e-01	9.994638e-01	9.994615e-01	9.994595e-01	9.994582e-01	9.994579e-01	9.994586e-01	9.994600e-01	9.994615e-01	9.994633e-01	9.994638e-01	9.994610e-01	9.994582e-01	9.994530e-01	9.994479e-01	9.994421e-01	9.994362e-01	9.994306e-01	9.994252e-01	9.994198e-01	9.994151e-01	9.994116e-01	9.994096e-01	9.994105e-01	9.994259e-01	9.995136e-01	9.999141e-01	1.001280e+00	1.004364e+00	1.008723e+00	1.012669e+00	1.015088e+00	1.016096e+00	1.016323e+00	1.016286e+00	1.015833e+00	1.014196e+00	1.011178e+00	1.007430e+00	1.003649e+00	1.000167e+00	9.971166e-01	9.946276e-01	9.928230e-01	9.917178e-01	9.911821e-01	9.910050e-01	9.909816e-01	9.910294e-01	9.913463e-01	9.921193e-01	9.931777e-01	9.942088e-01	9.950569e-01	9.957168e-01	9.962216e-01	9.966021e-01	9.968826e-01	9.970797e-01	9.972081e-01	9.972812e-01	9.973151e-01	9.973262e-01	9.973288e-01	9.973416e-01	9.974217e-01	9.977868e-01	9.990391e-01	1.001970e+00	1.006353e+00	1.010564e+00	1.013290e+00	1.014492e+00	1.014781e+00	1.014732e+00	1.014362e+00	1.012943e+00	1.010132e+00	1.006469e+00	1.002659e+00	9.990767e-01	9.958839e-01	9.932164e-01	9.911964e-01	9.898489e-01	9.890709e-01	9.886687e-01	9.884157e-01	9.881662e-01	9.880448e-01	9.882043e-01	9.884472e-01	9.887966e-01	9.994604e-01	9.994780e-01	9.994680e-01	9.994699e-01	9.994698e-01	9.994693e-01	9.994677e-01	9.994651e-01	9.994618e-01	9.994604e-01	9.994592e-01	9.994584e-01	9.994577e-01	9.994575e-01	9.994581e-01	9.994590e-01	9.994598e-01	9.994610e-01	9.994600e-01	9.994586e-01	9.994554e-01	9.994501e-01	9.994445e-01	9.994384e-01	9.994342e-01	9.994287e-01	9.994235e-01	9.994185e-01	9.994144e-01	9.994110e-01	9.994087e-01	9.994093e-01	9.994244e-01	9.995109e-01	9.999098e-01	1.001264e+00	1.004299e+00	1.008587e+00	1.012488e+00	1.014898e+00	1.015914e+00	1.016152e+00	1.016124e+00	1.015725e+00	1.014217e+00	1.011334e+00	1.007646e+00	1.003865e+00	1.000379e+00	9.973407e-01	9.948522e-01	9.930183e-01	9.918658e-01	9.912868e-01	9.910798e-01	9.910449e-01	9.910728e-01	9.913247e-01	9.920209e-01	9.930513e-01	9.940997e-01	9.949750e-01	9.956536e-01	9.961693e-01	9.965584e-01	9.968452e-01	9.970474e-01	9.971789e-01	9.972545e-01	9.972908e-01	9.973042e-01	9.973094e-01	9.973261e-01	9.974139e-01	9.977913e-01	9.990435e-01	1.001925e+00	1.006220e+00	1.010372e+00	1.013087e+00	1.014298e+00	1.014598e+00	1.014556e+00	1.014231e+00	1.012933e+00	1.010263e+00	1.006673e+00	1.002868e+00	9.992784e-01	9.960912e-01	9.934246e-01	9.913817e-01	9.899913e-01	9.891644e-01	9.887202e-01	9.884450e-01	9.881705e-01	9.879852e-01	9.880627e-01	9.882517e-01	9.885840e-01	9.994567e-01	9.994706e-01	9.994642e-01	9.994661e-01	9.994657e-01	9.994650e-01	9.994636e-01	9.994615e-01	9.994594e-01	9.994570e-01	9.994570e-01	9.994571e-01	9.994573e-01	9.994573e-01	9.994573e-01	9.994574e-01	9.994571e-01	9.994571e-01	9.994552e-01	9.994525e-01	9.994493e-01	9.994450e-01	9.994412e-01	9.994379e-01	9.994322e-01	9.994272e-01	9.994223e-01	9.994177e-01	9.994137e-01	9.994103e-01	9.994078e-01	9.994083e-01	9.994234e-01	9.995112e-01	9.999126e-01	1.001255e+00	1.004228e+00	1.008424e+00	1.012272e+00	1.014682e+00	1.015715e+00	1.015967e+00	1.015947e+00	1.015600e+00	1.014224e+00	1.011489e+00	1.007882e+00	1.004116e+00	1.000623e+00	9.975844e-01	9.950921e-01	9.932302e-01	9.920278e-01	9.913991e-01	9.911605e-01	9.911151e-01	9.911295e-01	9.913202e-01	9.919255e-01	9.929094e-01	9.939675e-01	9.948726e-01	9.955760e-01	9.961068e-01	9.965049e-01	9.967986e-01	9.970058e-01	9.971414e-01	9.972205e-01	9.972598e-01	9.972759e-01	9.972844e-01	9.973061e-01	9.974036e-01	9.977972e-01	9.990511e-01	1.001872e+00	1.006059e+00	1.010141e+00	1.012852e+00	1.014084e+00	1.014400e+00	1.014366e+00	1.014080e+00	1.012905e+00	1.010389e+00	1.006892e+00	1.003109e+00	9.995114e-01	9.963186e-01	9.936451e-01	9.915771e-01	9.901428e-01	9.892653e-01	9.887774e-01	9.884748e-01	9.881801e-01	9.879308e-01	9.879104e-01	9.880242e-01	9.883269e-01	9.994556e-01	9.994652e-01	9.994604e-01	9.994620e-01	9.994617e-01	9.994614e-01	9.994606e-01	9.994594e-01	9.994581e-01	9.994564e-01	9.994558e-01	9.994566e-01	9.994570e-01	9.994575e-01	9.994573e-01	9.994566e-01	9.994552e-01	9.994544e-01	9.994524e-01	9.994508e-01	9.994483e-01	9.994450e-01	9.994410e-01	9.994362e-01	9.994315e-01	9.994270e-01	9.994223e-01	9.994174e-01	9.994131e-01	9.994093e-01	9.994071e-01	9.994087e-01	9.994253e-01	9.995159e-01	9.999224e-01	1.001253e+00	1.004154e+00	1.008237e+00	1.012022e+00	1.014436e+00	1.015498e+00	1.015768e+00	1.015758e+00	1.015460e+00	1.014220e+00	1.011647e+00	1.008142e+00	1.004406e+00	1.000909e+00	9.978613e-01	9.953579e-01	9.934667e-01	9.922136e-01	9.915302e-01	9.912535e-01	9.911900e-01	9.911980e-01	9.913340e-01	9.918404e-01	9.927593e-01	9.938172e-01	9.947526e-01	9.954867e-01	9.960384e-01	9.964498e-01	9.967523e-01	9.969659e-01	9.971064e-01	9.971887e-01	9.972306e-01	9.972491e-01	9.972606e-01	9.972883e-01	9.973980e-01	9.978117e-01	9.990695e-01	1.001822e+00	1.005880e+00	1.009878e+00	1.012585e+00	1.013849e+00	1.014189e+00	1.014164e+00	1.013916e+00	1.012865e+00	1.010513e+00	1.007130e+00	1.003386e+00	9.997841e-01	9.965786e-01	9.938907e-01	9.917940e-01	9.903126e-01	9.893809e-01	9.888474e-01	9.885125e-01	9.881985e-01	9.878864e-01	9.877535e-01	9.877678e-01	9.880243e-01	9.994556e-01	9.994643e-01	9.994580e-01	9.994596e-01	9.994593e-01	9.994594e-01	9.994594e-01	9.994592e-01	9.994585e-01	9.994571e-01	9.994564e-01	9.994567e-01	9.994578e-01	9.994581e-01	9.994578e-01	9.994567e-01	9.994544e-01	9.994525e-01	9.994502e-01	9.994477e-01	9.994453e-01	9.994426e-01	9.994402e-01	9.994364e-01	9.994323e-01	9.994281e-01	9.994229e-01	9.994174e-01	9.994124e-01	9.994086e-01	9.994074e-01	9.994102e-01	9.994286e-01	9.995240e-01	9.999396e-01	1.001258e+00	1.004075e+00	1.008030e+00	1.011742e+00	1.014161e+00	1.015258e+00	1.015555e+00	1.015557e+00	1.015311e+00	1.014207e+00	1.011807e+00	1.008424e+00	1.004735e+00	1.001242e+00	9.981835e-01	9.956625e-01	9.937379e-01	9.924318e-01	9.916891e-01	9.913661e-01	9.912786e-01	9.912754e-01	9.913640e-01	9.917689e-01	9.926056e-01	9.936518e-01	9.946187e-01	9.953882e-01	9.959671e-01	9.963965e-01	9.967103e-01	9.969310e-01	9.970755e-01	9.971608e-01	9.972054e-01	9.972268e-01	9.972420e-01	9.972764e-01	9.974012e-01	9.978387e-01	9.990981e-01	1.001774e+00	1.005691e+00	1.009588e+00	1.012286e+00	1.013588e+00	1.013961e+00	1.013948e+00	1.013738e+00	1.012812e+00	1.010636e+00	1.007387e+00	1.003700e+00	1.000103e+00	9.968833e-01	9.941748e-01	9.920454e-01	9.905137e-01	9.895215e-01	9.889313e-01	9.885616e-01	9.882245e-01	9.878517e-01	9.875965e-01	9.874877e-01	9.876793e-01	9.994564e-01	9.994650e-01	9.994564e-01	9.994581e-01	9.994579e-01	9.994583e-01	9.994588e-01	9.994593e-01	9.994592e-01	9.994581e-01	9.994568e-01	9.994572e-01	9.994580e-01	9.994593e-01	9.994591e-01	9.994576e-01	9.994550e-01	9.994524e-01	9.994494e-01	9.994463e-01	9.994438e-01	9.994421e-01	9.994408e-01	9.994382e-01	9.994347e-01	9.994303e-01	9.994246e-01	9.994188e-01	9.994134e-01	9.994094e-01	9.994081e-01	9.994108e-01	9.994313e-01	9.995335e-01	9.999628e-01	1.001269e+00	1.003991e+00	1.007806e+00	1.011437e+00	1.013858e+00	1.014995e+00	1.015323e+00	1.015340e+00	1.015145e+00	1.014180e+00	1.011965e+00	1.008721e+00	1.005094e+00	1.001616e+00	9.985508e-01	9.960105e-01	9.940485e-01	9.926850e-01	9.918770e-01	9.914990e-01	9.913794e-01	9.913633e-01	9.914103e-01	9.917133e-01	9.924508e-01	9.934704e-01	9.944673e-01	9.952777e-01	9.958902e-01	9.963416e-01	9.966687e-01	9.968969e-01	9.970456e-01	9.971336e-01	9.971807e-01	9.972050e-01	9.972247e-01	9.972680e-01	9.974099e-01	9.978711e-01	9.991315e-01	1.001727e+00	1.005491e+00	1.009276e+00	1.011960e+00	1.013300e+00	1.013710e+00	1.013713e+00	1.013542e+00	1.012740e+00	1.010751e+00	1.007654e+00	1.004043e+00	1.000464e+00	9.972342e-01	9.945022e-01	9.923361e-01	9.907509e-01	9.896936e-01	9.890383e-01	9.886194e-01	9.882520e-01	9.878226e-01	9.874405e-01	9.871901e-01	9.872988e-01	9.994573e-01	9.994655e-01	9.994549e-01	9.994567e-01	9.994564e-01	9.994569e-01	9.994577e-01	9.994588e-01	9.994593e-01	9.994583e-01	9.994571e-01	9.994568e-01	9.994583e-01	9.994586e-01	9.994595e-01	9.994582e-01	9.994553e-01	9.994522e-01	9.994484e-01	9.994447e-01	9.994419e-01	9.994409e-01	9.994408e-01	9.994393e-01	9.994363e-01	9.994322e-01	9.994262e-01	9.994189e-01	9.994119e-01	9.994077e-01	9.994068e-01	9.994108e-01	9.994325e-01	9.995445e-01	9.999918e-01	1.001283e+00	1.003905e+00	1.007570e+00	1.011109e+00	1.013529e+00	1.014709e+00	1.015073e+00	1.015104e+00	1.014956e+00	1.014133e+00	1.012113e+00	1.009023e+00	1.005475e+00	1.002020e+00	9.989531e-01	9.963947e-01	9.943944e-01	9.929699e-01	9.920894e-01	9.916475e-01	9.914866e-01	9.914556e-01	9.914713e-01	9.916778e-01	9.922987e-01	9.932710e-01	9.942912e-01	9.951479e-01	9.957996e-01	9.962771e-01	9.966199e-01	9.968567e-01	9.970102e-01	9.971014e-01	9.971516e-01	9.971798e-01	9.972052e-01	9.972582e-01	9.974186e-01	9.979056e-01	9.991663e-01	1.001676e+00	1.005281e+00	1.008944e+00	1.011606e+00	1.012986e+00	1.013439e+00	1.013459e+00	1.013321e+00	1.012645e+00	1.010848e+00	1.007920e+00	1.004402e+00	1.000855e+00	9.976214e-01	9.948660e-01	9.926599e-01	9.910178e-01	9.898915e-01	9.891650e-01	9.886814e-01	9.882735e-01	9.877921e-01	9.872852e-01	9.868808e-01	9.868906e-01	9.994576e-01	9.994645e-01	9.994533e-01	9.994550e-01	9.994546e-01	9.994551e-01	9.994559e-01	9.994573e-01	9.994582e-01	9.994575e-01	9.994565e-01	9.994561e-01	9.994572e-01	9.994588e-01	9.994580e-01	9.994577e-01	9.994546e-01	9.994510e-01	9.994465e-01	9.994420e-01	9.994387e-01	9.994383e-01	9.994390e-01	9.994383e-01	9.994360e-01	9.994314e-01	9.994246e-01	9.994163e-01	9.994092e-01	9.994057e-01	9.994055e-01	9.994083e-01	9.994315e-01	9.995569e-01	1.000025e+00	1.001299e+00	1.003820e+00	1.007327e+00	1.010762e+00	1.013177e+00	1.014401e+00	1.014803e+00	1.014849e+00	1.014742e+00	1.014058e+00	1.012242e+00	1.009323e+00	1.005868e+00	1.002447e+00	9.993823e-01	9.968067e-01	9.947685e-01	9.932823e-01	9.923243e-01	9.918094e-01	9.915989e-01	9.915456e-01	9.915450e-01	9.916662e-01	9.921572e-01	9.930558e-01	9.940871e-01	9.949914e-01	9.956867e-01	9.961960e-01	9.965578e-01	9.968055e-01	9.969654e-01	9.970609e-01	9.971151e-01	9.971481e-01	9.971798e-01	9.972437e-01	9.974238e-01	9.979379e-01	9.991991e-01	1.001623e+00	1.005065e+00	1.008596e+00	1.011229e+00	1.012646e+00	1.013144e+00	1.013184e+00	1.013075e+00	1.012518e+00	1.010921e+00	1.008176e+00	1.004767e+00	1.001263e+00	9.980327e-01	9.952564e-01	9.930086e-01	9.913055e-01	9.901054e-01	9.893017e-01	9.887460e-01	9.882806e-01	9.877517e-01	9.871298e-01	9.865664e-01	9.864644e-01	9.994562e-01	9.994620e-01	9.994521e-01	9.994534e-01	9.994529e-01	9.994532e-01	9.994539e-01	9.994551e-01	9.994565e-01	9.994561e-01	9.994554e-01	9.994550e-01	9.994557e-01	9.994570e-01	9.994577e-01	9.994554e-01	9.994534e-01	9.994489e-01	9.994438