# vtk DataFile Version 3.0
vtk output
ASCII
DATASET STRUCTURED_GRID
DIMENSIONS 101 101 1
POINTS 10201 double
0.000000e+00	0.000000e+00	0.0	1.000000e-02	0.000000e+00	0.0	2.000000e-02	0.000000e+00	0.0	3.000000e-02	0.000000e+00	0.0	4.000000e-02	0.000000e+00	0.0	5.000000e-02	0.000000e+00	0.0	6.000000e-02	0.000000e+00	0.0	7.000000e-02	0.000000e+00	0.0	8.000000e-02	0.000000e+00	0.0	9.000000e-02	0.000000e+00	0.0	1.000000e-01	0.000000e+00	0.0	1.100000e-01	0.000000e+00	0.0	1.200000e-01	0.000000e+00	0.0	1.300000e-01	0.000000e+00	0.0	1.400000e-01	0.000000e+00	0.0	1.500000e-01	0.000000e+00	0.0	1.600000e-01	0.000000e+00	0.0	1.700000e-01	0.000000e+00	0.0	1.800000e-01	0.000000e+00	0.0	1.900000e-01	0.000000e+00	0.0	2.000000e-01	0.000000e+00	0.0	2.100000e-01	0.000000e+00	0.0	2.200000e-01	0.000000e+00	0.0	2.300000e-01	0.000000e+00	0.0	2.400000e-01	0.000000e+00	0.0	2.500000e-01	0.000000e+00	0.0	2.600000e-01	0.000000e+00	0.0	2.700000e-01	0.000000e+00	0.0	2.800000e-01	0.000000e+00	0.0	2.900000e-01	0.000000e+00	0.0	3.000000e-01	0.000000e+00	0.0	3.100000e-01	0.000000e+00	0.0	3.200000e-01	0.000000e+00	0.0	3.300000e-01	0.000000e+00	0.0	3.400000e-01	0.000000e+00	0.0	3.500000e-01	0.000000e+00	0.0	3.600000e-01	0.000000e+00	0.0	3.700000e-01	0.000000e+00	0.0	3.800000e-01	0.000000e+00	0.0	3.900000e-01	0.000000e+00	0.0	4.000000e-01	0.000000e+00	0.0	4.100000e-01	0.000000e+00	0.0	4.200000e-01	0.000000e+00	0.0	4.300000e-01	0.000000e+00	0.0	4.400000e-01	0.000000e+00	0.0	4.500000e-01	0.000000e+00	0.0	4.600000e-01	0.000000e+00	0.0	4.700000e-01	0.000000e+00	0.0	4.800000e-01	0.000000e+00	0.0	4.900000e-01	0.000000e+00	0.0	5.000000e-01	0.000000e+00	0.0	5.100000e-01	0.000000e+00	0.0	5.200000e-01	0.000000e+00	0.0	5.300000e-01	0.000000e+00	0.0	5.400000e-01	0.000000e+00	0.0	5.500000e-01	0.000000e+00	0.0	5.600000e-01	0.000000e+00	0.0	5.700000e-01	0.000000e+00	0.0	5.800000e-01	0.000000e+00	0.0	5.900000e-01	0.000000e+00	0.0	6.000000e-01	0.000000e+00	0.0	6.100000e-01	0.000000e+00	0.0	6.200000e-01	0.000000e+00	0.0	6.300000e-01	0.000000e+00	0.0	6.400000e-01	0.000000e+00	0.0	6.500000e-01	0.000000e+00	0.0	6.600000e-01	0.000000e+00	0.0	6.700000e-01	0.000000e+00	0.0	6.800000e-01	0.000000e+00	0.0	6.900000e-01	0.000000e+00	0.0	7.000000e-01	0.000000e+00	0.0	7.100000e-01	0.000000e+00	0.0	7.200000e-01	0.000000e+00	0.0	7.300000e-01	0.000000e+00	0.0	7.400000e-01	0.000000e+00	0.0	7.500000e-01	0.000000e+00	0.0	7.600000e-01	0.000000e+00	0.0	7.700000e-01	0.000000e+00	0.0	7.800000e-01	0.000000e+00	0.0	7.900000e-01	0.000000e+00	0.0	8.000000e-01	0.000000e+00	0.0	8.100000e-01	0.000000e+00	0.0	8.200000e-01	0.000000e+00	0.0	8.300000e-01	0.000000e+00	0.0	8.400000e-01	0.000000e+00	0.0	8.500000e-01	0.000000e+00	0.0	8.600000e-01	0.000000e+00	0.0	8.700000e-01	0.000000e+00	0.0	8.800000e-01	0.000000e+00	0.0	8.900000e-01	0.000000e+00	0.0	9.000000e-01	0.000000e+00	0.0	9.100000e-01	0.000000e+00	0.0	9.200000e-01	0.000000e+00	0.0	9.300000e-01	0.000000e+00	0.0	9.400000e-01	0.000000e+00	0.0	9.500000e-01	0.000000e+00	0.0	9.600000e-01	0.000000e+00	0.0	9.700000e-01	0.000000e+00	0.0	9.800000e-01	0.000000e+00	0.0	9.900000e-01	0.000000e+00	0.0	1.000000e+00	0.000000e+00	0.0	0.000000e+00	1.000000e-02	0.0	1.000000e-02	1.000000e-02	0.0	2.000000e-02	1.000000e-02	0.0	3.000000e-02	1.000000e-02	0.0	4.000000e-02	1.000000e-02	0.0	5.000000e-02	1.000000e-02	0.0	6.000000e-02	1.000000e-02	0.0	7.000000e-02	1.000000e-02	0.0	8.000000e-02	1.000000e-02	0.0	9.000000e-02	1.000000e-02	0.0	1.000000e-01	1.000000e-02	0.0	1.100000e-01	1.000000e-02	0.0	1.200000e-01	1.000000e-02	0.0	1.300000e-01	1.000000e-02	0.0	1.400000e-01	1.000000e-02	0.0	1.500000e-01	1.000000e-02	0.0	1.600000e-01	1.000000e-02	0.0	1.700000e-01	1.000000e-02	0.0	1.800000e-01	1.000000e-02	0.0	1.900000e-01	1.000000e-02	0.0	2.000000e-01	1.000000e-02	0.0	2.100000e-01	1.000000e-02	0.0	2.200000e-01	1.000000e-02	0.0	2.300000e-01	1.000000e-02	0.0	2.400000e-01	1.000000e-02	0.0	2.500000e-01	1.000000e-02	0.0	2.600000e-01	1.000000e-02	0.0	2.700000e-01	1.000000e-02	0.0	2.800000e-01	1.000000e-02	0.0	2.900000e-01	1.000000e-02	0.0	3.000000e-01	1.000000e-02	0.0	3.100000e-01	1.000000e-02	0.0	3.200000e-01	1.000000e-02	0.0	3.300000e-01	1.000000e-02	0.0	3.400000e-01	1.000000e-02	0.0	3.500000e-01	1.000000e-02	0.0	3.600000e-01	1.000000e-02	0.0	3.700000e-01	1.000000e-02	0.0	3.800000e-01	1.000000e-02	0.0	3.900000e-01	1.000000e-02	0.0	4.000000e-01	1.000000e-02	0.0	4.100000e-01	1.000000e-02	0.0	4.200000e-01	1.000000e-02	0.0	4.300000e-01	1.000000e-02	0.0	4.400000e-01	1.000000e-02	0.0	4.500000e-01	1.000000e-02	0.0	4.600000e-01	1.000000e-02	0.0	4.700000e-01	1.000000e-02	0.0	4.800000e-01	1.000000e-02	0.0	4.900000e-01	1.000000e-02	0.0	5.000000e-01	1.000000e-02	0.0	5.100000e-01	1.000000e-02	0.0	5.200000e-01	1.000000e-02	0.0	5.300000e-01	1.000000e-02	0.0	5.400000e-01	1.000000e-02	0.0	5.500000e-01	1.000000e-02	0.0	5.600000e-01	1.000000e-02	0.0	5.700000e-01	1.000000e-02	0.0	5.800000e-01	1.000000e-02	0.0	5.900000e-01	1.000000e-02	0.0	6.000000e-01	1.000000e-02	0.0	6.100000e-01	1.000000e-02	0.0	6.200000e-01	1.000000e-02	0.0	6.300000e-01	1.000000e-02	0.0	6.400000e-01	1.000000e-02	0.0	6.500000e-01	1.000000e-02	0.0	6.600000e-01	1.000000e-02	0.0	6.700000e-01	1.000000e-02	0.0	6.800000e-01	1.000000e-02	0.0	6.900000e-01	1.000000e-02	0.0	7.000000e-01	1.000000e-02	0.0	7.100000e-01	1.000000e-02	0.0	7.200000e-01	1.000000e-02	0.0	7.300000e-01	1.000000e-02	0.0	7.400000e-01	1.000000e-02	0.0	7.500000e-01	1.000000e-02	0.0	7.600000e-01	1.000000e-02	0.0	7.700000e-01	1.000000e-02	0.0	7.800000e-01	1.000000e-02	0.0	7.900000e-01	1.000000e-02	0.0	8.000000e-01	1.000000e-02	0.0	8.100000e-01	1.000000e-02	0.0	8.200000e-01	1.000000e-02	0.0	8.300000e-01	1.000000e-02	0.0	8.400000e-01	1.000000e-02	0.0	8.500000e-01	1.000000e-02	0.0	8.600000e-01	1.000000e-02	0.0	8.700000e-01	1.000000e-02	0.0	8.800000e-01	1.000000e-02	0.0	8.900000e-01	1.000000e-02	0.0	9.000000e-01	1.000000e-02	0.0	9.100000e-01	1.000000e-02	0.0	9.200000e-01	1.000000e-02	0.0	9.300000e-01	1.000000e-02	0.0	9.400000e-01	1.000000e-02	0.0	9.500000e-01	1.000000e-02	0.0	9.600000e-01	1.000000e-02	0.0	9.700000e-01	1.000000e-02	0.0	9.800000e-01	1.000000e-02	0.0	9.900000e-01	1.000000e-02	0.0	1.000000e+00	1.000000e-02	0.0	0.000000e+00	2.000000e-02	0.0	1.000000e-02	2.000000e-02	0.0	2.000000e-02	2.000000e-02	0.0	3.000000e-02	2.000000e-02	0.0	4.000000e-02	2.000000e-02	0.0	5.000000e-02	2.000000e-02	0.0	6.000000e-02	2.000000e-02	0.0	7.000000e-02	2.000000e-02	0.0	8.000000e-02	2.000000e-02	0.0	9.000000e-02	2.000000e-02	0.0	1.000000e-01	2.000000e-02	0.0	1.100000e-01	2.000000e-02	0.0	1.200000e-01	2.000000e-02	0.0	1.300000e-01	2.000000e-02	0.0	1.400000e-01	2.000000e-02	0.0	1.500000e-01	2.000000e-02	0.0	1.600000e-01	2.000000e-02	0.0	1.700000e-01	2.000000e-02	0.0	1.800000e-01	2.000000e-02	0.0	1.900000e-01	2.000000e-02	0.0	2.000000e-01	2.000000e-02	0.0	2.100000e-01	2.000000e-02	0.0	2.200000e-01	2.000000e-02	0.0	2.300000e-01	2.000000e-02	0.0	2.400000e-01	2.000000e-02	0.0	2.500000e-01	2.000000e-02	0.0	2.600000e-01	2.000000e-02	0.0	2.700000e-01	2.000000e-02	0.0	2.800000e-01	2.000000e-02	0.0	2.900000e-01	2.000000e-02	0.0	3.000000e-01	2.000000e-02	0.0	3.100000e-01	2.000000e-02	0.0	3.200000e-01	2.000000e-02	0.0	3.300000e-01	2.000000e-02	0.0	3.400000e-01	2.000000e-02	0.0	3.500000e-01	2.000000e-02	0.0	3.600000e-01	2.000000e-02	0.0	3.700000e-01	2.000000e-02	0.0	3.800000e-01	2.000000e-02	0.0	3.900000e-01	2.000000e-02	0.0	4.000000e-01	2.000000e-02	0.0	4.100000e-01	2.000000e-02	0.0	4.200000e-01	2.000000e-02	0.0	4.300000e-01	2.000000e-02	0.0	4.400000e-01	2.000000e-02	0.0	4.500000e-01	2.000000e-02	0.0	4.600000e-01	2.000000e-02	0.0	4.700000e-01	2.000000e-02	0.0	4.800000e-01	2.000000e-02	0.0	4.900000e-01	2.000000e-02	0.0	5.000000e-01	2.000000e-02	0.0	5.100000e-01	2.000000e-02	0.0	5.200000e-01	2.000000e-02	0.0	5.300000e-01	2.000000e-02	0.0	5.400000e-01	2.000000e-02	0.0	5.500000e-01	2.000000e-02	0.0	5.600000e-01	2.000000e-02	0.0	5.700000e-01	2.000000e-02	0.0	5.800000e-01	2.000000e-02	0.0	5.900000e-01	2.000000e-02	0.0	6.000000e-01	2.000000e-02	0.0	6.100000e-01	2.000000e-02	0.0	6.200000e-01	2.000000e-02	0.0	6.300000e-01	2.000000e-02	0.0	6.400000e-01	2.000000e-02	0.0	6.500000e-01	2.000000e-02	0.0	6.600000e-01	2.000000e-02	0.0	6.700000e-01	2.000000e-02	0.0	6.800000e-01	2.000000e-02	0.0	6.900000e-01	2.000000e-02	0.0	7.000000e-01	2.000000e-02	0.0	7.100000e-01	2.000000e-02	0.0	7.200000e-01	2.000000e-02	0.0	7.300000e-01	2.000000e-02	0.0	7.400000e-01	2.000000e-02	0.0	7.500000e-01	2.000000e-02	0.0	7.600000e-01	2.000000e-02	0.0	7.700000e-01	2.000000e-02	0.0	7.800000e-01	2.000000e-02	0.0	7.900000e-01	2.000000e-02	0.0	8.000000e-01	2.000000e-02	0.0	8.100000e-01	2.000000e-02	0.0	8.200000e-01	2.000000e-02	0.0	8.300000e-01	2.000000e-02	0.0	8.400000e-01	2.000000e-02	0.0	8.500000e-01	2.000000e-02	0.0	8.600000e-01	2.000000e-02	0.0	8.700000e-01	2.000000e-02	0.0	8.800000e-01	2.000000e-02	0.0	8.900000e-01	2.000000e-02	0.0	9.000000e-01	2.000000e-02	0.0	9.100000e-01	2.000000e-02	0.0	9.200000e-01	2.000000e-02	0.0	9.300000e-01	2.000000e-02	0.0	9.400000e-01	2.000000e-02	0.0	9.500000e-01	2.000000e-02	0.0	9.600000e-01	2.000000e-02	0.0	9.700000e-01	2.000000e-02	0.0	9.800000e-01	2.000000e-02	0.0	9.900000e-01	2.000000e-02	0.0	1.000000e+00	2.000000e-02	0.0	0.000000e+00	3.000000e-02	0.0	1.000000e-02	3.000000e-02	0.0	2.000000e-02	3.000000e-02	0.0	3.000000e-02	3.000000e-02	0.0	4.000000e-02	3.000000e-02	0.0	5.000000e-02	3.000000e-02	0.0	6.000000e-02	3.000000e-02	0.0	7.000000e-02	3.000000e-02	0.0	8.000000e-02	3.000000e-02	0.0	9.000000e-02	3.000000e-02	0.0	1.000000e-01	3.000000e-02	0.0	1.100000e-01	3.000000e-02	0.0	1.200000e-01	3.000000e-02	0.0	1.300000e-01	3.000000e-02	0.0	1.400000e-01	3.000000e-02	0.0	1.500000e-01	3.000000e-02	0.0	1.600000e-01	3.000000e-02	0.0	1.700000e-01	3.000000e-02	0.0	1.800000e-01	3.000000e-02	0.0	1.900000e-01	3.000000e-02	0.0	2.000000e-01	3.000000e-02	0.0	2.100000e-01	3.000000e-02	0.0	2.200000e-01	3.000000e-02	0.0	2.300000e-01	3.000000e-02	0.0	2.400000e-01	3.000000e-02	0.0	2.500000e-01	3.000000e-02	0.0	2.600000e-01	3.000000
[...]
POINT_DATA 10201

SCALARS Height double 1
LOOKUP_TABLE default
1.115630e+00	1.115474e+00	1.100854e+00	1.083966e+00	1.062083e+00	1.036448e+00	1.010825e+00	9.907542e-01	9.786598e-01	9.726257e-01	9.698148e-01	9.685942e-01	9.680515e-01	9.679365e-01	9.681011e-01	9.683781e-01	9.686397e-01	9.688429e-01	9.690044e-01	9.691440e-01	9.692017e-01	9.691437e-01	9.690040e-01	9.688437e-01	9.686447e-01	9.683894e-01	9.681141e-01	9.679380e-01	9.680331e-01	9.685648e-01	9.697111e-01	9.719395e-01	9.755075e-01	9.806478e-01	9.874398e-01	9.960103e-01	1.006695e+00	1.019823e+00	1.034839e+00	1.049262e+00	1.059682e+00	1.065221e+00	1.066986e+00	1.065630e+00	1.058528e+00	1.042833e+00	1.022965e+00	1.008653e+00	1.002609e+00	1.000803e+00	1.000285e+00	1.000107e+00	1.000037e+00	1.000012e+00	1.000003e+00	1.000001e+00	1.000000e+00	1.000000e+00	1.000000e+00	1.000000e+00	1.000000e+00	1.000000e+00	1.000000e+00	1.000000e+00	1.000000e+00	1.000000e+00	1.000000e+00	1.000000e+00	1.000000e+00	1.000000e+00	1.000000e+00	1.000000e+00	1.000000e+00	1.000000e+00	1.000000e+00	1.000000e+00	1.000000e+00	1.000000e+00	1.000000e+00	1.000000e+00	1.000000e+00	1.000000e+00	1.000000e+00	1.000000e+00	1.000000e+00	1.000000e+00	1.000000e+00	1.000000e+00	1.000000e+00	1.000000e+00	1.000000e+00	1.000000e+00	1.000000e+00	1.000000e+00	1.000000e+00	1.000000e+00	1.000000e+00	1.000000e+00	1.000000e+00	1.000000e+00	1.000000e+00	1.115474e+00	1.115313e+00	1.100728e+00	1.085087e+00	1.063645e+00	1.038526e+00	1.013779e+00	9.943234e-01	9.822474e-01	9.757325e-01	9.723662e-01	9.706011e-01	9.697218e-01	9.692584e-01	9.691628e-01	9.692454e-01	9.693694e-01	9.694864e-01	9.696083e-01	9.697283e-01	9.697791e-01	9.697279e-01	9.696078e-01	9.694873e-01	9.693744e-01	9.692562e-01	9.691747e-01	9.692596e-01	9.697128e-01	9.705954e-01	9.722716e-01	9.749474e-01	9.787992e-01	9.840760e-01	9.910270e-01	9.997499e-01	1.010407e+00	1.022962e+00	1.036712e+00	1.049731e+00	1.059452e+00	1.064557e+00	1.065554e+00	1.063620e+00	1.055356e+00	1.040282e+00	1.022265e+00	1.008770e+00	1.002540e+00	1.000714e+00	1.000245e+00	1.000093e+00	1.000033e+00	1.000010e+00	1.000003e+00	1.000001e+00	1.000000e+00	1.000000e+00	1.000000e+00	1.000000e+00	1.000000e+00	1.000000e+00	1.000000e+00	1.000000e+00	1.000000e+00	1.000000e+00	1.000000e+00	1.000000e+00	1.000000e+00	1.000000e+00	1.000000e+00	1.000000e+00	1.000000e+00	1.000000e+00	1.000000e+00	1.000000e+00	1.000000e+00	1.000000e+00	1.000000e+00	1.000000e+00	1.000000e+00	1.000000e+00	1.000000e+00	1.000000e+00	1.000000e+00	1.000000e+00	1.000000e+00	1.000000e+00	1.000000e+00	1.000000e+00	1.000000e+00	1.000000e+00	1.000000e+00	1.000000e+00	1.000000e+00	1.000000e+00	1.000000e+00	1.000000e+00	1.000000e+00	1.000000e+00	1.000000e+00	1.100854e+00	1.100728e+00	1.088317e+00	1.076393e+00	1.059888e+00	1.040451e+00	1.021301e+00	1.003467e+00	9.896330e-01	9.813269e-01	9.768194e-01	9.742590e-01	9.728375e-01	9.721068e-01	9.717726e-01	9.717825e-01	9.719373e-01	9.721224e-01	9.723153e-01	9.724850e-01	9.725499e-01	9.724846e-01	9.723155e-01	9.721254e-01	9.719449e-01	9.717921e-01	9.717782e-01	9.721095e-01	9.728423e-01	9.742187e-01	9.764189e-01	9.793959e-01	9.832197e-01	9.880829e-01	9.942972e-01	1.002146e+00	1.011356e+00	1.021196e+00	1.030930e+00	1.040749e+00	1.050999e+00	1.058111e+00	1.059763e+00	1.057627e+00	1.049278e+00	1.038114e+00	1.028047e+00	1.016502e+00	1.006362e+00	1.001687e+00	1.000450e+00	1.000151e+00	1.000055e+00	1.000019e+00	1.000005e+00	1.000001e+00	1.000000e+00	1.000000e+00	1.000000e+00	1.000000e+00	1.000000e+00	1.000000e+00	1.000000e+00	1.000000e+00	1.000000e+00	1.000000e+00	1.000000e+00	1.000000e+00	1.000000e+00	1.000000e+00	1.000000e+00	1.000000e+00	1.000000e+00	1.000000e+00	1.000000e+00	1.000000e+00	1.000000e+00	1.000000e+00	1.000000e+00	1.000000e+00	1.000000e+00	1.000000e+00	1.000000e+00	1.000000e+00	1.000000e+00	1.000000e+00	1.000000e+00	1.000000e+00	1.000000e+00	1.000000e+00	1.000000e+00	1.000000e+00	1.000000e+00	1.000000e+00	1.000000e+00	1.000000e+00	1.000000e+00	1.000000e+00	1.000000e+00	1.000000e+00	1.000000e+00	1.083966e+00	1.085087e+00	1.076393e+00	1.067890e+00	1.055622e+00	1.043213e+00	1.031124e+00	1.017626e+00	1.002802e+00	9.911366e-01	9.846103e-01	9.813117e-01	9.795653e-01	9.787060e-01	9.782332e-01	9.779920e-01	9.778676e-01	9.777833e-01	9.777421e-01	9.777608e-01	9.777855e-01	9.777609e-01	9.777442e-01	9.777892e-01	9.778756e-01	9.779977e-01	9.782385e-01	9.787201e-01	9.795624e-01	9.810874e-01	9.833851e-01	9.865730e-01	9.906885e-01	9.956766e-01	1.001425e+00	1.007839e+00	1.014495e+00	1.020864e+00	1.027151e+00	1.034365e+00	1.042026e+00	1.048188e+00	1.049611e+00	1.047142e+00	1.040557e+00	1.034609e+00	1.030240e+00	1.023446e+00	1.012813e+00	1.004217e+00	1.001012e+00	1.000271e+00	1.000092e+00	1.000033e+00	1.000011e+00	1.000003e+00	1.000001e+00	1.000000e+00	1.000000e+00	1.000000e+00	1.000000e+00	1.000000e+00	1.000000e+00	1.000000e+00	1.000000e+00	1.000000e+00	1.000000e+00	1.000000e+00	1.000000e+00	1.000000e+00	1.000000e+00	1.000000e+00	1.000000e+00	1.000000e+00	1.000000e+00	1.000000e+00	1.000000e+00	1.000000e+00	1.000000e+00	1.000000e+00	1.000000e+00	1.000000e+00	1.000000e+00	1.000000e+00	1.000000e+00	1.000000e+00	1.000000e+00	1.000000e+00	1.000000e+00	1.000000e+00	1.000000e+00	1.000000e+00	1.000000e+00	1.000000e+00	1.000000e+00	1.000000e+00	1.000000e+00	1.000000e+00	1.000000e+00	1.000000e+00	1.000000e+00	1.062083e+00	1.063645e+00	1.059888e+00	1.055622e+00	1.050435e+00	1.045156e+00	1.038920e+00	1.030553e+00	1.017985e+00	1.004547e+00	9.958554e-01	9.917484e-01	9.895898e-01	9.881454e-01	9.870939e-01	9.862790e-01	9.856229e-01	9.851064e-01	9.847239e-01	9.844913e-01	9.844393e-01	9.844927e-01	9.847282e-01	9.851131e-01	9.856295e-01	9.862891e-01	9.871176e-01	9.881577e-01	9.894514e-01	9.910035e-01	9.929833e-01	9.957166e-01	9.993733e-01	1.003679e+00	1.008061e+00	1.011917e+00	1.015316e+00	1.018811e+00	1.023199e+00	1.027640e+00	1.031189e+00	1.034079e+00	1.036006e+00	1.035574e+00	1.034169e+00	1.032801e+00	1.031200e+00	1.028058e+00	1.019998e+00	1.009139e+00	1.002558e+00	1.000595e+00	1.000167e+00	1.000058e+00	1.000020e+00	1.000006e+00	1.000001e+00	1.000000e+00	1.000000e+00	1.000000e+00	1.000000e+00	1.000000e+00	1.000000e+00	1.000000e+00	1.000000e+00	1.000000e+00	1.000000e+00	1.000000e+00	1.000000e+00	1.000000e+00	1.000000e+00	1.000000e+00	1.000000e+00	1.000000e+00	1.000000e+00	1.000000e+00	1.000000e+00	1.000000e+00	1.000000e+00	1.000000e+00	1.000000e+00	1.000000e+00	1.000000e+00	1.000000e+00	1.000000e+00	1.000000e+00	1.000000e+00	1.000000e+00	1.000000e+00	1.000000e+00	1.000000e+00	1.000000e+00	1.000000e+00	1.000000e+00	1.000000e+00	1.000000e+00	1.000000e+00	1.000000e+00	1.000000e+00	1.000000e+00	1.000000e+00	1.036448e+00	1.038526e+00	1.040451e+00	1.043213e+00	1.045156e+00	1.044935e+00	1.043254e+00	1.039457e+00	1.031703e+00	1.020073e+00	1.009701e+00	1.004029e+00	1.000995e+00	9.988397e-01	9.971209e-01	9.957588e-01	9.946739e-01	9.938104e-01	9.931730e-01	9.927799e-01	9.926389e-01	9.927825e-01	9.931781e-01	9.938161e-01	9.946858e-01	9.957909e-01	9.971580e-01	9.987697e-01	1.000531e+00	1.002312e+00	1.004024e+00	1.005748e+00	1.007719e+00	1.009930e+00	1.011905e+00	1.013439e+00	1.014840e+00	1.016733e+00	1.018345e+00	1.018910e+00	1.018670e+00	1.018557e+00	1.020707e+00	1.025936e+00	1.030281e+00	1.031390e+00	1.031381e+00	1.030113e+00	1.025360e+00	1.015473e+00	1.005781e+00	1.001427e+00	1.000337e+00	1.000100e+00	1.000034e+00	1.000011e+00	1.000003e+00	1.000001e+00	1.000000e+00	1.000000e+00	1.000000e+00	1.000000e+00	1.000000e+00	1.000000e+00	1.000000e+00	1.000000e+00	1.000000e+00	1.000000e+00	1.000000e+00	1.000000e+00	1.000000e+00	1.000000e+00	1.000000e+00	1.000000e+00	1.000000e+00	1.000000e+00	1.000000e+00	1.000000e+00	1.000000e+00	1.000000e+00	1.000000e+00	1.000000e+00	1.000000e+00	1.000000e+00	1.000000e+00	1.000000e+00	1.000000e+00	1.000000e+00	1.000000e+00	1.000000e+00	1.000000e+00	1.000000e+00	1.000000e+00	1.000000e+00	1.000000e+00	1.000000e+00	1.000000e+00	1.000000e+00	1.000000e+00	1.000000e+00	1.000000e+00	1.010825e+00	1.013779e+00	1.021301e+00	1.031124e+00	1.038920e+00	1.043254e+00	1.044427e+00	1.044197e+00	1.041589e+00	1.034170e+00	1.023686e+00	1.015999e+00	1.012009e+00	1.009407e+00	1.007345e+00	1.005690e+00	1.004404e+00	1.003398e+00	1.002640e+00	1.002181e+00	1.002027e+00	1.002184e+00	1.002644e+00	1.003405e+00	1.004436e+00	1.005754e+00	1.007340e+00	1.009114e+00	1.010953e+00	1.012659e+00	1.013866e+00	1.014204e+00	1.013806e+00	1.013301e+00	1.013175e+00	1.013531e+00	1.013807e+00	1.013088e+00	1.010582e+00	1.007367e+00	1.005324e+00	1.005306e+00	1.009649e+00	1.018249e+00	1.026261e+00	1.030129e+00	1.030895e+00	1.030624e+00	1.028332e+00	1.021223e+00	1.010641e+00	1.003251e+00	1.000741e+00	1.000183e+00	1.000057e+00	1.000019e+00	1.000006e+00	1.000001e+00	1.000000e+00	1.000000e+00	1.000000e+00	1.000000e+00	1.000000e+00	1.000000e+00	1.000000e+00	1.000000e+00	1.000000e+00	1.000000e+00	1.000000e+00	1.000000e+00	1.000000e+00	1.000000e+00	1.000000e+00	1.000000e+00	1.000000e+00	1.000000e+00	1.000000e+00	1.000000e+00	1.000000e+00	1.000000e+00	1.000000e+00	1.000000e+00	1.000000e+00	1.000000e+00	1.000000e+00	1.000000e+00	1.000000e+00	1.000000e+00	1.000000e+00	1.000000e+00	1.000000e+00	1.000000e+00	1.000000e+00	1.000000e+00	1.000000e+00	1.000000e+00	1.000000e+00	1.000000e+00	1.000000e+00	1.000000e+00	1.000000e+00	9.907542e-01	9.943234e-01	1.003467e+00	1.017626e+00	1.030553e+00	1.039457e+00	1.044197e+00	1.046364e+00	1.047284e+00	1.043871e+00	1.034737e+00	1.025292e+00	1.020389e+00	1.017887e+00	1.016096e+00	1.014668e+00	1.013550e+00	1.012667e+00	1.012009e+00	1.011583e+00	1.011444e+00	1.011583e+00	1.012015e+00	1.012684e+00	1.013610e+00	1.014739e+00	1.015983e+00	1.017241e+00	1.018399e+00	1.019222e+00	1.019457e+00	1.019054e+00	1.017621e+00	1.015480e+00	1.013842e+00	1.012498e+00	1.010120e+00	1.005609e+00	9.999633e-01	9.958738e-01	9.946707e-01	9.964459e-01	1.003029e+00	1.012233e+00	1.021554e+00	1.027945e+00	1.030134e+00	1.030412e+00	1.029401e+00	1.025208e+00	1.016005e+00	1.006371e+00	1.001630e+00	1.000363e+00	1.000096e+00	1.000030e+00	1.000010e+00	1.000003e+00	1.000001e+00	1.000000e+00	1.000000e+00	1.000000e+00	1.000000e+00	1.000000e+00	1.000000e+00	1.000000e+00	1.000000e+00	1.000000e+00	1.000000e+00	1.000000e+00	1.000000e+00	1.000000e+00	1.000000e+00	1.000000e+00	1.000000e+00	1.000000e+00	1.000000e+00	1.000000e+00	1.000000e+00	1.000000e+00	1.000000e+00	1.000000e+00	1.000000e+00	1.000000e+00	1.000000e+00	1.000000e+00	1.000000e+00	1.000000e+00	1.000000e+00	1.000000e+00	1.000000e+00	1.000000e+00	1.000000e+00	1.000000e+00	1.000000e+00	1.000000e+00	1.000000e+00	1.000000e+00	1.000000e+00	1.000000e+00	1.000000e+00	9.786598e-01	9.822474e-01	9.896330e-01	1.002802e+00	1.017985e+00	1.031703e+00	1.041589e+00	1.047284e+00	1.049119e+00	1.047833e+00	1.041710e+00	1.031716e+00	1.024953e+00	1.022249e+00	1.021017e+00	1.020229e+00	1.019619e+00	1.019181e+00	1.018823e+00	1.018591e+00	1.018526e+00	1.018593e+00	1.018830e+00	1.019224e+00	1.019711e+00	1.020226e+00	1.020703e+00	1.021103e+00	1.021363e+00	1.021454e+00	1.021315e+00	1.020885e+00	1.019700e+00	1.017125e+00	1.012968e+00	1.007794e+00	1.001796e+00	9.954912e-01	9.905452e-01	9.883056e-01	9.883306e-01	9.917705e-01	9.985636e-01	1.007172e+00	1.016650e+00	1.024836e+00	1.028968e+00	1.029804e+00	1.029668e+00	1.027423e+00	1.020585e+00	1.010472e+00	1.003281e+00	1.000743e+00	1.000171e+00	1.000048e+00	1.000015e+00	1.000005e+00	1.000001e+00	1.000000e+00	1.000000e+00	1.000000e+00	1.000000e+00	1.000000e+00	1.000000e+00	1.000000e+00	1.000000e+00	1.000000e+00	1.000000e+00	1.000000e+00	1.000000e+00	1.000000e+00	1.000000e+00	1.000000e+00	1.000000e+00	1.000000e+00	1.000000e+00	1.000000e+00	1.000000e+00	1.000000e+00	1.000000e+00	1.000000e+00	1.000000e+00	1.000000e+00	1.000000e+00	1.000000e+00	1.000000e+00	1.000000e+00	1.000000e+00	1.000000e+00	1.000000e+00	1.000000e+00	1.000000e+00	1.000000e+00	1.000000e+00	1.000000e+00	1.000000e+00	1.000000e+00	1.000000e+00	1.000000e+00	1.000000e+00	9.726257e-01	9.757325e-01	9.813269e-01	9.911366e-01	1.004547e+00	1.020073e+00	1.034170e+00	1.043871e+00	1.047833e+00	1.048325e+00	1.044691e+00	1.036302e+00	1.027844e+00	1.023919e+00	1.022564e+00	1.022000e+00	1.021690e+00	1.021593e+00	1.021517e+00	1.021439e+00	1.021420e+00	1.021444e+00	1.021535e+00	1.021660e+00	1.021776e+00	1.021871e+00	1.021971e+00	1.022075e+00	1.022157e+00	1.022059e+00	1.021700e+00	1.020834e+00	1.018828e+00	1.014752e+00	1.007883e+00	9.994615e-01	9.923379e-01	9.877905e-01	9.855132e-01	9.848531e-01	9.855784e-01	9.890549e-01	9.950101e-01	1.002804e+00	1.011997e+00	1.021120e+00	1.027190e+00	1.029141e+00	1.029401e+00	1.028289e+00	1.023816e+00	1.014737e+00	1.005770e+00	1.001467e+00	1.000317e+00	1.000078e+00	1.000023e+00	1.000007e+00	1.000002e+00	1.000000e+00	1.000000e+00	1.000000e+00	1.000000e+00	1.000000e+00	1.000000e+00	1.000000e+00	1.000000e+00	1.000000e+00	1.000000e+00	1.000000e+00	1.000000e+00	1.000000e+00	1.000000e+00	1.000000e+00	1.000000e+00	1.000000e+00	1.000000e+00	1.000000e+00	1.000000e+00	1.000000e+00	1.000000e+00	1.000000e+00	1.000000e+00	1.000000e+00	1.000000e+00	1.000000e+00	1.000000e+00	1.000000e+00	1.000000e+00	1.000000e+00	1.000000e+00	1.000000e+00	1.000000e+00	1.000000e+00	1.000000e+00	1.000000e+00	1.000000e+00	1.000000e+00	1.000000e+00	1.000000e+00	1.000000e+00	9.698148e-01	9.723662e-01	9.768194e-01	9.846103e-01	9.958554e-01	1.009701e+00	1.023686e+00	1.034737e+00	1.041710e+00	1.044691e+00	1.044387e+00	1.038648e+00	1.030029e+00	1.024745e+00	1.023075e+00	1.022466e+00	1.022177e+00	1.022136e+00	1.022148e+00	1.022116e+00	1.022115e+00	1.022126e+00	1.022177e+00	1.022214e+00	1.022222e+00	1.022196e+00	1.022141e+00	1.021982e+00	1.021577e+00	1.020799e+00	1.019313e+00	1.016766e+00	1.012743e+00	1.006990e+00	9.999028e-01	9.927303e-01	9.873163e-01	9.846129e-01	9.837617e-01	9.836899e-01	9.845103e-01	9.872133e-01	9.920876e-01	9.990668e-01	1.007813e+00	1.017280e+00	1.024892e+00	1.028296e+00	1.028884e+00	1.028583e+00	1.025775e+00	1.018430e+00	1.008835e+00	1.002652e+00	1.000586e+00	1.000130e+00	1.000035e+00	1.000011e+00	1.000003e+00	1.000001e+00	1.000000e+00	1.000000e+00	1.000000e+00	1.000000e+00	1.000000e+00	1.000000e+00	1.000000e+00	1.000000e+00	1.000000e+00	1.000000e+00	1.000000e+00	1.000000e+00	1.000000e+00	1.000000e+00	1.000000e+00	1.000000e+00	1.000000e+00	1.000000e+00	1.000000e+00	1.000000e+00	1.000000e+00	1.000000e+00	1.000000e+00	1.000000e+00	1.000000e+00	1.000000e+00	1.000000e+00	1.000000e+00	1.000000e+00	1.000000e+00	1.000000e+00	1.000000e+00	1.000000e+00	1.000000e+00	1.000000e+00	1.000000e+00	1.000000e+00	1.000000e+00	1.000000e+00	1.000000e+00	1.000000e+00	9.685942e-01	9.706011e-01	9.742590e-01	9.813117e-01	9.917484e-01	1.004029e+00	1.015999e+00	1.025292e+00	1.031716e+00	1.036302e+00	1.038648e+00	1.036394e+00	1.029377e+00	1.023414e+00	1.021519e+00	1.021226e+00	1.021186e+00	1.021392e+00	1.021605e+00	1.021677e+00	1.021700e+00	1.021694e+00	1.021640e+00	1.021464e+00	1.021170e+00	1.020756e+00	1.020168e+00	1.019198e+00	1.017710e+00	1.015470e+00	1.012314e+00	1.008251e+00	1.003564e+00	9.988091e-01	9.943764e-01	9.902576e-01	9.866321e-01	9.843434e-01	9.835929e-01	9.835136e-01	9.840729e-01	9.859041e-01	9.897857e-01	9.959613e-01	1.004171e+00	1.013618e+00	1.022251e+00	1.027164e+00	1.028383e+00	1.028455e+00	1.026759e+00	1.021240e+00	1.012009e+00	1.004298e+00	1.001036e+00	1.000219e+00	1.000053e+00	1.000015e+00	1.000004e+00	1.000001e+00	1.000000e+00	1.000000e+00	1.000000e+00	1.000000e+00	1.000000e+00	1.000000e+00	1.000000e+00	1.000000e+00	1.000000e+00	1.000000e+00	1.000000e+00	1.000000e+00	1.000000e+00	1.000000e+00	1.000000e+00	1.000000e+00	1.000000e+00	1.000000e+00	1.000000e+00	1.000000e+00	1.000000e+00	1.000000e+00	1.000000e+00	1.000000e+00	1.000000e+00	1.000000e+00	1.000000e+00	1.000000e+00	1.000000e+00	1.000000e+00	1.000000e+00	1.000000e+00	1.000000e+00	1.000000e+00	1.000000e+00	1.000000e+00	1.000000e+00	1.000000e+00	1.000000e+00	1.000000e+00	1.000000e+00	9.680515e-01	9.697218e-01	9.728375e-01	9.795653e-01	9.895898e-01	1.000995e+00	1.012009e+00	1.020389e+00	1.024953e+00	1.027844e+00	1.030029e+00	1.029377e+00	1.024285e+00	1.018411e+00	1.016145e+00	1.016389e+00	1.016887e+00	1.017506e+00	1.018032e+00	1.018366e+00	1.018474e+00	1.018388e+00	1.018068e+00	1.017545e+00	1.016788e+00	1.015739e+00	1.014288e+00	1.012328e+00	1.009794e+00	1.006748e+00	1.003411e+00	1.000137e+00	9.972692e-01	9.948980e-01	9.927673e-01	9.904233e-01	9.876301e-01	9.850754e-01	9.838972e-01	9.837176e-01	9.838970e-01	9.850725e-01	9.880922e-01	9.934638e-01	1.001080e+00	1.010299e+00	1.019504e+00	1.025767e+00	1.027852e+00	1.028128e+00	1.027246e+00	1.023161e+00	1.014899e+00	1.006263e+00	1.001699e+00	1.000361e+00	1.000080e+00	1.000021e+00	1.000006e+00	1.000002e+00	1.000000e+00	1.000000e+00	1.000000e+00	1.000000e+00	1.000000e+00	1.000000e+00	1.000000e+00	1.000000e+00	1.000000e+00	1.000000e+00	1.000000e+00	1.000000e+00	1.000000e+00	1.000000e+00	1.000000e+00	1.000000e+00	1.000000e+00	1.000000e+00	1.000000e+00	1.000000e+00	1.000000e+00	1.000000e+00	1.000000e+00	1.000000e+00	1.000000e+00	1.000000e+00	1.000000e+00	1.000000e+00	1.000000e+00	1.000000e+00	1.000000e+00	1.000000e+00	1.000000e+00	1.000000e+00	1.000000e+00	1.000000e+00	1.000000e+00	1.000000e+00	1.000000e+00	1.000000e+00	1.000000e+00	9.679365e-01	9.692584e-01	9.721068e-01	9.787060e-01	9.881454e-01	9.988397e-01	1.009407e+00	1.017887e+00	1.022249e+00	1.023919e+00	1.024745e+00	1.023414e+00	1.018411e+00	1.012033e+00	1.008498e+00	1.008441e+00	1.009272e+00	1.010129e+00	1.010855e+00	1.011326e+00	1.011572e+00	1.011345e+00	1.010885e+00	1.010127e+00	1.009061e+00	1.007663e+00	1.005926e+00	1.003913e+00	1.001769e+00	9.996893e-01	9.978470e-01	9.963329e-01	9.951072e-01	9.940066e-01	9.927818e-01	9.911127e-01	9.887378e-01	9.860927e-01	9.843765e-01	9.839350e-01	9.839343e-01	9.846531e-01	9.869280e-01	9.915254e-01	9.985124e-01	1.007395e+00	1.016855e+00	1.024177e+00	1.027260e+00	1.027767e+00	1.027400e+00	1.024416e+00	1.017283e+00	1.008324e+00	1.002558e+00	1.000569e+00	1.000119e+00	1.000029e+00	1.000008e+00	1.000002e+00	1.000001e+00	1.000000e+00	1.000000e+00	1.000000e+00	1.000000e+00	1.000000e+00	1.000000e+00	1.000000e+00	1.000000e+00	1.000000e+00	1.000000e+00	1.000000e+00	1.000000e+00	1.000000e+00	1.000000e+00	1.000000e+00	1.000000e+00	1.000000e+00	1.000000e+00	1.000000e+00	1.000000e+00	1.000000e+00	1.000000e+00	1.000000e+00	1.000000e+00	1.000000e+00	1.000000e+00	1.000000e+00	1.000000e+00	1.000000e+00	1.000000e+00	1.000000e+00	1.000000e+00	1.000000e+00	1.000000e+00	1.000000e+00	1.000000e+00	1.000000e+00	1.000000e+00	1.000000e+00	1.000000e+00	9.681011e-01	9.691628e-01	9.717726e-01	9.782332e-01	9.870939e-01	9.971209e-01	1.007345e+00	1.016096e+00	1.021017e+00	1.022564e+00	1.023075e+00	1.021519e+00	1.016145e+00	1.008498e+00	1.003254e+00	1.001725e+00	1.002016e+00	1.002607e+00	1.003163e+00	1.003545e+00	1.003679e+00	1.003556e+00	1.003177e+00	1.002564e+00	1.001748e+00	1.000765e+00	9.996854e-01	9.985991e-01	9.975967e-01	9.967239e-01	9.959799e-01	9.953290e-01	9.947025e-01	9.939997e-01	9.930745e-01	9.917089e-01	9.896702e-01	9.870791e-01	9.849400e-01	9.841531e-01	9.840641e-01	9.844569e-01	9.861823e-01	9.900771e-01	9.964389e-01	1.004932e+00	1.014448e+00	1.022550e+00	1.026600e+00	1.027441e+00	1.027337e+00	1.025173e+00	1.019112e+00	1.010279e+00	1.003547e+00	1.000842e+00	1.000173e+00	1.000039e+00	1.000010e+00	1.000003e+00	1.000001e+00	1.000000e+00	1.000000e+00	1.000000e+00	1.000000e+00	1.000000e+00	1.000000e+00	1.000000e+00	1.000000e+00	1.000000e+00	1.000000e+00	1.000000e+00	1.000000e+00	1.000000e+00	1.000000e+00	1.000000e+00	1.000000e+00	1.000000e+00	1.000000e+00	1.000000e+00	1.000000e+00	1.000000e+00	1.000000e+00	1.000000e+00	1.000000e+00	1.000000e+00	1.000000e+00	1.000000e+00	1.000000e+00	1.000000e+00	1.000000e+00	1.000000e+00	1.000000e+00	1.000000e+00	1.000000e+00	1.000000e+00	1.000000e+00	1.000000e+00	1.000000e+00	1.000000e+00	1.000000e+00	9.683781e-01	9.692454e-01	9.717825e-01	9.779920e-01	9.862790e-01	9.957588e-01	1.005690e+00	1.014668e+00	1.020229e+00	1.022000e+00	1.022466e+00	1.021226e+00	1.016389e+00	1.008441e+00	1.001725e+00	9.988686e-01	9.983068e-01	9.984149e-01	9.986163