# vtk DataFile Version 3.0
vtk output
ASCII
DATASET STRUCTURED_GRID
DIMENSIONS 101 101 1
POINTS 10201 double
0.000000e+00	0.000000e+00	0.0	1.000000e-02	0.000000e+00	0.0	2.000000e-02	0.000000e+00	0.0	3.000000e-02	0.000000e+00	0.0	4.000000e-02	0.000000e+00	0.0	5.000000e-02	0.000000e+00	0.0	6.000000e-02	0.000000e+00	0.0	7.000000e-02	0.000000e+00	0.0	8.000000e-02	0.000000e+00	0.0	9.000000e-02	0.000000e+00	0.0	1.000000e-01	0.000000e+00	0.0	1.100000e-01	0.000000e+00	0.0	1.200000e-01	0.000000e+00	0.0	1.300000e-01	0.000000e+00	0.0	1.400000e-01	0.000000e+00	0.0	1.500000e-01	0.000000e+00	0.0	1.600000e-01	0.000000e+00	0.0	1.700000e-01	0.000000e+00	0.0	1.800000e-01	0.000000e+00	0.0	1.900000e-01	0.000000e+00	0.0	2.000000e-01	0.000000e+00	0.0	2.100000e-01	0.000000e+00	0.0	2.200000e-01	0.000000e+00	0.0	2.300000e-01	0.000000e+00	0.0	2.400000e-01	0.000000e+00	0.0	2.500000e-01	0.000000e+00	0.0	2.600000e-01	0.000000e+00	0.0	2.700000e-01	0.000000e+00	0.0	2.800000e-01	0.000000e+00	0.0	2.900000e-01	0.000000e+00	0.0	3.000000e-01	0.000000e+00	0.0	3.100000e-01	0.000000e+00	0.0	3.200000e-01	0.000000e+00	0.0	3.300000e-01	0.000000e+00	0.0	3.400000e-01	0.000000e+00	0.0	3.500000e-01	0.000000e+00	0.0	3.600000e-01	0.000000e+00	0.0	3.700000e-01	0.000000e+00	0.0	3.800000e-01	0.000000e+00	0.0	3.900000e-01	0.000000e+00	0.0	4.000000e-01	0.000000e+00	0.0	4.100000e-01	0.000000e+00	0.0	4.200000e-01	0.000000e+00	0.0	4.300000e-01	0.000000e+00	0.0	4.400000e-01	0.000000e+00	0.0	4.500000e-01	0.000000e+00	0.0	4.600000e-01	0.000000e+00	0.0	4.700000e-01	0.000000e+00	0.0	4.800000e-01	0.000000e+00	0.0	4.900000e-01	0.000000e+00	0.0	5.000000e-01	0.000000e+00	0.0	5.100000e-01	0.000000e+00	0.0	5.200000e-01	0.000000e+00	0.0	5.300000e-01	0.000000e+00	0.0	5.400000e-01	0.000000e+00	0.0	5.500000e-01	0.000000e+00	0.0	5.600000e-01	0.000000e+00	0.0	5.700000e-01	0.000000e+00	0.0	5.800000e-01	0.000000e+00	0.0	5.900000e-01	0.000000e+00	0.0	6.000000e-01	0.000000e+00	0.0	6.100000e-01	0.000000e+00	0.0	6.200000e-01	0.000000e+00	0.0	6.300000e-01	0.000000e+00	0.0	6.400000e-01	0.000000e+00	0.0	6.500000e-01	0.000000e+00	0.0	6.600000e-01	0.000000e+00	0.0	6.700000e-01	0.000000e+00	0.0	6.800000e-01	0.000000e+00	0.0	6.900000e-01	0.000000e+00	0.0	7.000000e-01	0.000000e+00	0.0	7.100000e-01	0.000000e+00	0.0	7.200000e-01	0.000000e+00	0.0	7.300000e-01	0.000000e+00	0.0	7.400000e-01	0.000000e+00	0.0	7.500000e-01	0.000000e+00	0.0	7.600000e-01	0.000000e+00	0.0	7.700000e-01	0.000000e+00	0.0	7.800000e-01	0.000000e+00	0.0	7.900000e-01	0.000000e+00	0.0	8.000000e-01	0.000000e+00	0.0	8.100000e-01	0.000000e+00	0.0	8.200000e-01	0.000000e+00	0.0	8.300000e-01	0.000000e+00	0.0	8.400000e-01	0.000000e+00	0.0	8.500000e-01	0.000000e+00	0.0	8.600000e-01	0.000000e+00	0.0	8.700000e-01	0.000000e+00	0.0	8.800000e-01	0.000000e+00	0.0	8.900000e-01	0.000000e+00	0.0	9.000000e-01	0.000000e+00	0.0	9.100000e-01	0.000000e+00	0.0	9.200000e-01	0.000000e+00	0.0	9.300000e-01	0.000000e+00	0.0	9.400000e-01	0.000000e+00	0.0	9.500000e-01	0.000000e+00	0.0	9.600000e-01	0.000000e+00	0.0	9.700000e-01	0.000000e+00	0.0	9.800000e-01	0.000000e+00	0.0	9.900000e-01	0.000000e+00	0.0	1.000000e+00	0.000000e+00	0.0	0.000000e+00	1.000000e-02	0.0	1.000000e-02	1.000000e-02	0.0	2.000000e-02	1.000000e-02	0.0	3.000000e-02	1.000000e-02	0.0	4.000000e-02	1.000000e-02	0.0	5.000000e-02	1.000000e-02	0.0	6.000000e-02	1.000000e-02	0.0	7.000000e-02	1.000000e-02	0.0	8.000000e-02	1.000000e-02	0.0	9.000000e-02	1.000000e-02	0.0	1.000000e-01	1.000000e-02	0.0	1.100000e-01	1.000000e-02	0.0	1.200000e-01	1.000000e-02	0.0	1.300000e-01	1.000000e-02	0.0	1.400000e-01	1.000000e-02	0.0	1.500000e-01	1.000000e-02	0.0	1.600000e-01	1.000000e-02	0.0	1.700000e-01	1.000000e-02	0.0	1.800000e-01	1.000000e-02	0.0	1.900000e-01	1.000000e-02	0.0	2.000000e-01	1.000000e-02	0.0	2.100000e-01	1.000000e-02	0.0	2.200000e-01	1.000000e-02	0.0	2.300000e-01	1.000000e-02	0.0	2.400000e-01	1.000000e-02	0.0	2.500000e-01	1.000000e-02	0.0	2.600000e-01	1.000000e-02	0.0	2.700000e-01	1.000000e-02	0.0	2.800000e-01	1.000000e-02	0.0	2.900000e-01	1.000000e-02	0.0	3.000000e-01	1.000000e-02	0.0	3.100000e-01	1.000000e-02	0.0	3.200000e-01	1.000000e-02	0.0	3.300000e-01	1.000000e-02	0.0	3.400000e-01	1.000000e-02	0.0	3.500000e-01	1.000000e-02	0.0	3.600000e-01	1.000000e-02	0.0	3.700000e-01	1.000000e-02	0.0	3.800000e-01	1.000000e-02	0.0	3.900000e-01	1.000000e-02	0.0	4.000000e-01	1.000000e-02	0.0	4.100000e-01	1.000000e-02	0.0	4.200000e-01	1.000000e-02	0.0	4.300000e-01	1.000000e-02	0.0	4.400000e-01	1.000000e-02	0.0	4.500000e-01	1.000000e-02	0.0	4.600000e-01	1.000000e-02	0.0	4.700000e-01	1.000000e-02	0.0	4.800000e-01	1.000000e-02	0.0	4.900000e-01	1.000000e-02	0.0	5.000000e-01	1.000000e-02	0.0	5.100000e-01	1.000000e-02	0.0	5.200000e-01	1.000000e-02	0.0	5.300000e-01	1.000000e-02	0.0	5.400000e-01	1.000000e-02	0.0	5.500000e-01	1.000000e-02	0.0	5.600000e-01	1.000000e-02	0.0	5.700000e-01	1.000000e-02	0.0	5.800000e-01	1.000000e-02	0.0	5.900000e-01	1.000000e-02	0.0	6.000000e-01	1.000000e-02	0.0	6.100000e-01	1.000000e-02	0.0	6.200000e-01	1.000000e-02	0.0	6.300000e-01	1.000000e-02	0.0	6.400000e-01	1.000000e-02	0.0	6.500000e-01	1.000000e-02	0.0	6.600000e-01	1.000000e-02	0.0	6.700000e-01	1.000000e-02	0.0	6.800000e-01	1.000000e-02	0.0	6.900000e-01	1.000000e-02	0.0	7.000000e-01	1.000000e-02	0.0	7.100000e-01	1.000000e-02	0.0	7.200000e-01	1.000000e-02	0.0	7.300000e-01	1.000000e-02	0.0	7.400000e-01	1.000000e-02	0.0	7.500000e-01	1.000000e-02	0.0	7.600000e-01	1.000000e-02	0.0	7.700000e-01	1.000000e-02	0.0	7.800000e-01	1.000000e-02	0.0	7.900000e-01	1.000000e-02	0.0	8.000000e-01	1.000000e-02	0.0	8.100000e-01	1.000000e-02	0.0	8.200000e-01	1.000000e-02	0.0	8.300000e-01	1.000000e-02	0.0	8.400000e-01	1.000000e-02	0.0	8.500000e-01	1.000000e-02	0.0	8.600000e-01	1.000000e-02	0.0	8.700000e-01	1.000000e-02	0.0	8.800000e-01	1.000000e-02	0.0	8.900000e-01	1.000000e-02	0.0	9.000000e-01	1.000000e-02	0.0	9.100000e-01	1.000000e-02	0.0	9.200000e-01	1.000000e-02	0.0	9.300000e-01	1.000000e-02	0.0	9.400000e-01	1.000000e-02	0.0	9.500000e-01	1.000000e-02	0.0	9.600000e-01	1.000000e-02	0.0	9.700000e-01	1.000000e-02	0.0	9.800000e-01	1.000000e-02	0.0	9.900000e-01	1.000000e-02	0.0	1.000000e+00	1.000000e-02	0.0	0.000000e+00	2.000000e-02	0.0	1.000000e-02	2.000000e-02	0.0	2.000000e-02	2.000000e-02	0.0	3.000000e-02	2.000000e-02	0.0	4.000000e-02	2.000000e-02	0.0	5.000000e-02	2.000000e-02	0.0	6.000000e-02	2.000000e-02	0.0	7.000000e-02	2.000000e-02	0.0	8.000000e-02	2.000000e-02	0.0	9.000000e-02	2.000000e-02	0.0	1.000000e-01	2.000000e-02	0.0	1.100000e-01	2.000000e-02	0.0	1.200000e-01	2.000000e-02	0.0	1.300000e-01	2.000000e-02	0.0	1.400000e-01	2.000000e-02	0.0	1.500000e-01	2.000000e-02	0.0	1.600000e-01	2.000000e-02	0.0	1.700000e-01	2.000000e-02	0.0	1.800000e-01	2.000000e-02	0.0	1.900000e-01	2.000000e-02	0.0	2.000000e-01	2.000000e-02	0.0	2.100000e-01	2.000000e-02	0.0	2.200000e-01	2.000000e-02	0.0	2.300000e-01	2.000000e-02	0.0	2.400000e-01	2.000000e-02	0.0	2.500000e-01	2.000000e-02	0.0	2.600000e-01	2.000000e-02	0.0	2.700000e-01	2.000000e-02	0.0	2.800000e-01	2.000000e-02	0.0	2.900000e-01	2.000000e-02	0.0	3.000000e-01	2.000000e-02	0.0	3.100000e-01	2.000000e-02	0.0	3.200000e-01	2.000000e-02	0.0	3.300000e-01	2.000000e-02	0.0	3.400000e-01	2.000000e-02	0.0	3.500000e-01	2.000000e-02	0.0	3.600000e-01	2.000000e-02	0.0	3.700000e-01	2.000000e-02	0.0	3.800000e-01	2.000000e-02	0.0	3.900000e-01	2.000000e-02	0.0	4.000000e-01	2.000000e-02	0.0	4.100000e-01	2.000000e-02	0.0	4.200000e-01	2.000000e-02	0.0	4.300000e-01	2.000000e-02	0.0	4.400000e-01	2.000000e-02	0.0	4.500000e-01	2.000000e-02	0.0	4.600000e-01	2.000000e-02	0.0	4.700000e-01	2.000000e-02	0.0	4.800000e-01	2.000000e-02	0.0	4.900000e-01	2.000000e-02	0.0	5.000000e-01	2.000000e-02	0.0	5.100000e-01	2.000000e-02	0.0	5.200000e-01	2.000000e-02	0.0	5.300000e-01	2.000000e-02	0.0	5.400000e-01	2.000000e-02	0.0	5.500000e-01	2.000000e-02	0.0	5.600000e-01	2.000000e-02	0.0	5.700000e-01	2.000000e-02	0.0	5.800000e-01	2.000000e-02	0.0	5.900000e-01	2.000000e-02	0.0	6.000000e-01	2.000000e-02	0.0	6.100000e-01	2.000000e-02	0.0	6.200000e-01	2.000000e-02	0.0	6.300000e-01	2.000000e-02	0.0	6.400000e-01	2.000000e-02	0.0	6.500000e-01	2.000000e-02	0.0	6.600000e-01	2.000000e-02	0.0	6.700000e-01	2.000000e-02	0.0	6.800000e-01	2.000000e-02	0.0	6.900000e-01	2.000000e-02	0.0	7.000000e-01	2.000000e-02	0.0	7.100000e-01	2.000000e-02	0.0	7.200000e-01	2.000000e-02	0.0	7.300000e-01	2.000000e-02	0.0	7.400000e-01	2.000000e-02	0.0	7.500000e-01	2.000000e-02	0.0	7.600000e-01	2.000000e-02	0.0	7.700000e-01	2.000000e-02	0.0	7.800000e-01	2.000000e-02	0.0	7.900000e-01	2.000000e-02	0.0	8.000000e-01	2.000000e-02	0.0	8.100000e-01	2.000000e-02	0.0	8.200000e-01	2.000000e-02	0.0	8.300000e-01	2.000000e-02	0.0	8.400000e-01	2.000000e-02	0.0	8.500000e-01	2.000000e-02	0.0	8.600000e-01	2.000000e-02	0.0	8.700000e-01	2.000000e-02	0.0	8.800000e-01	2.000000e-02	0.0	8.900000e-01	2.000000e-02	0.0	9.000000e-01	2.000000e-02	0.0	9.100000e-01	2.000000e-02	0.0	9.200000e-01	2.000000e-02	0.0	9.300000e-01	2.000000e-02	0.0	9.400000e-01	2.000000e-02	0.0	9.500000e-01	2.000000e-02	0.0	9.600000e-01	2.000000e-02	0.0	9.700000e-01	2.000000e-02	0.0	9.800000e-01	2.000000e-02	0.0	9.900000e-01	2.000000e-02	0.0	1.000000e+00	2.000000e-02	0.0	0.000000e+00	3.000000e-02	0.0	1.000000e-02	3.000000e-02	0.0	2.000000e-02	3.000000e-02	0.0	3.000000e-02	3.000000e-02	0.0	4.000000e-02	3.000000e-02	0.0	5.000000e-02	3.000000e-02	0.0	6.000000e-02	3.000000e-02	0.0	7.000000e-02	3.000000e-02	0.0	8.000000e-02	3.000000e-02	0.0	9.000000e-02	3.000000e-02	0.0	1.000000e-01	3.000000e-02	0.0	1.100000e-01	3.000000e-02	0.0	1.200000e-01	3.000000e-02	0.0	1.300000e-01	3.000000e-02	0.0	1.400000e-01	3.000000e-02	0.0	1.500000e-01	3.000000e-02	0.0	1.600000e-01	3.000000e-02	0.0	1.700000e-01	3.000000e-02	0.0	1.800000e-01	3.000000e-02	0.0	1.900000e-01	3.000000e-02	0.0	2.000000e-01	3.000000e-02	0.0	2.100000e-01	3.000000e-02	0.0	2.200000e-01	3.000000e-02	0.0	2.300000e-01	3.000000e-02	0.0	2.400000e-01	3.000000e-02	0.0	2.500000e-01	3.000000e-02	0.0	2.600000e-01	3.000000
[...]
POINT_DATA 10201

SCALARS Height double 1
LOOKUP_TABLE default
9.991824e-01	9.992029e-01	9.992032e-01	9.992038e-01	9.992046e-01	9.992028e-01	9.991984e-01	9.991916e-01	9.991849e-01	9.991819e-01	9.991793e-01	9.991774e-01	9.991754e-01	9.991736e-01	9.991719e-01	9.991705e-01	9.991706e-01	9.991697e-01	9.991708e-01	9.991707e-01	9.991693e-01	9.991660e-01	9.991569e-01	9.991447e-01	9.991266e-01	9.991115e-01	9.991001e-01	9.990908e-01	9.990829e-01	9.990761e-01	9.990699e-01	9.990634e-01	9.990559e-01	9.990462e-01	9.990328e-01	9.990168e-01	9.989992e-01	9.989817e-01	9.989655e-01	9.989505e-01	9.989360e-01	9.989214e-01	9.989056e-01	9.988885e-01	9.988699e-01	9.988497e-01	9.988282e-01	9.988053e-01	9.987808e-01	9.987543e-01	9.987248e-01	9.986913e-01	9.986542e-01	9.986166e-01	9.985820e-01	9.985530e-01	9.985528e-01	9.986246e-01	9.989595e-01	1.000036e+00	1.002626e+00	1.007143e+00	1.012469e+00	1.016619e+00	1.018479e+00	1.018757e+00	1.018292e+00	1.016859e+00	1.014274e+00	1.010446e+00	1.005771e+00	1.000923e+00	9.963279e-01	9.922690e-01	9.889420e-01	9.864206e-01	9.845588e-01	9.831265e-01	9.818770e-01	9.809507e-01	9.806521e-01	9.810733e-01	9.820831e-01	9.833535e-01	9.848269e-01	9.867567e-01	9.893678e-01	9.927746e-01	9.968793e-01	1.001471e+00	1.006249e+00	1.010754e+00	1.014311e+00	1.016626e+00	1.017824e+00	1.018122e+00	1.017688e+00	1.015612e+00	1.011459e+00	1.006920e+00	1.005231e+00	9.991997e-01	9.992438e-01	9.992236e-01	9.992243e-01	9.992229e-01	9.992200e-01	9.992145e-01	9.992060e-01	9.991989e-01	9.991925e-01	9.991872e-01	9.991830e-01	9.991801e-01	9.991780e-01	9.991767e-01	9.991752e-01	9.991695e-01	9.991685e-01	9.991719e-01	9.991690e-01	9.991676e-01	9.991626e-01	9.991561e-01	9.991418e-01	9.991257e-01	9.991170e-01	9.991058e-01	9.990957e-01	9.990872e-01	9.990796e-01	9.990729e-01	9.990665e-01	9.990592e-01	9.990506e-01	9.990390e-01	9.990246e-01	9.990085e-01	9.989923e-01	9.989766e-01	9.989622e-01	9.989485e-01	9.989352e-01	9.989203e-01	9.989040e-01	9.988858e-01	9.988657e-01	9.988437e-01	9.988204e-01	9.987955e-01	9.987688e-01	9.987389e-01	9.987044e-01	9.986651e-01	9.986247e-01	9.985866e-01	9.985489e-01	9.985171e-01	9.985493e-01	9.988201e-01	9.998308e-01	1.002529e+00	1.007383e+00	1.012932e+00	1.016850e+00	1.018501e+00	1.018726e+00	1.018465e+00	1.017198e+00	1.014406e+00	1.010405e+00	1.005737e+00	1.000893e+00	9.962792e-01	9.922013e-01	9.888739e-01	9.863847e-01	9.845992e-01	9.832067e-01	9.819409e-01	9.808757e-01	9.804766e-01	9.810287e-01	9.821581e-01	9.834317e-01	9.848533e-01	9.867119e-01	9.892947e-01	9.927076e-01	9.968334e-01	1.001446e+00	1.006223e+00	1.010733e+00	1.014484e+00	1.016957e+00	1.017949e+00	1.018071e+00	1.017682e+00	1.015802e+00	1.011800e+00	1.006947e+00	1.004870e+00	9.991786e-01	9.992075e-01	9.991909e-01	9.991936e-01	9.991942e-01	9.991939e-01	9.991924e-01	9.991890e-01	9.991855e-01	9.991834e-01	9.991819e-01	9.991802e-01	9.991777e-01	9.991744e-01	9.991698e-01	9.991641e-01	9.991547e-01	9.991450e-01	9.991391e-01	9.991340e-01	9.991311e-01	9.991245e-01	9.991199e-01	9.991167e-01	9.991090e-01	9.991013e-01	9.990954e-01	9.990882e-01	9.990809e-01	9.990744e-01	9.990684e-01	9.990623e-01	9.990550e-01	9.990447e-01	9.990314e-01	9.990151e-01	9.989968e-01	9.989775e-01	9.989588e-01	9.989413e-01	9.989249e-01	9.989092e-01	9.988932e-01	9.988761e-01	9.988575e-01	9.988372e-01	9.988150e-01	9.987913e-01	9.987661e-01	9.987391e-01	9.987092e-01	9.986747e-01	9.986357e-01	9.985962e-01	9.985584e-01	9.985206e-01	9.984909e-01	9.985156e-01	9.987669e-01	9.997832e-01	1.002588e+00	1.007534e+00	1.012900e+00	1.016579e+00	1.018166e+00	1.018458e+00	1.018272e+00	1.017142e+00	1.014290e+00	1.010234e+00	1.005632e+00	1.000877e+00	9.963211e-01	9.922687e-01	9.889612e-01	9.864581e-01	9.846359e-01	9.832153e-01	9.819619e-01	9.808518e-01	9.804090e-01	9.810211e-01	9.821825e-01	9.834461e-01	9.848969e-01	9.867799e-01	9.893693e-01	9.927619e-01	9.968684e-01	1.001425e+00	1.006113e+00	1.010566e+00	1.014382e+00	1.016897e+00	1.017733e+00	1.017789e+00	1.017326e+00	1.015525e+00	1.011765e+00	1.007055e+00	1.005003e+00	9.991731e-01	9.992038e-01	9.991867e-01	9.991883e-01	9.991902e-01	9.991912e-01	9.991904e-01	9.991877e-01	9.991849e-01	9.991833e-01	9.991821e-01	9.991805e-01	9.991782e-01	9.991750e-01	9.991706e-01	9.991655e-01	9.991580e-01	9.991522e-01	9.991489e-01	9.991463e-01	9.991435e-01	9.991368e-01	9.991291e-01	9.991210e-01	9.991109e-01	9.991023e-01	9.990949e-01	9.990868e-01	9.990791e-01	9.990726e-01	9.990670e-01	9.990611e-01	9.990538e-01	9.990437e-01	9.990307e-01	9.990150e-01	9.989968e-01	9.989771e-01	9.989574e-01	9.989389e-01	9.989218e-01	9.989058e-01	9.988899e-01	9.988732e-01	9.988551e-01	9.988351e-01	9.988129e-01	9.987891e-01	9.987638e-01	9.987367e-01	9.987069e-01	9.986724e-01	9.986331e-01	9.985931e-01	9.985551e-01	9.985167e-01	9.984842e-01	9.984971e-01	9.987269e-01	9.997421e-01	1.002602e+00	1.007601e+00	1.012926e+00	1.016492e+00	1.017991e+00	1.018257e+00	1.018086e+00	1.017096e+00	1.014346e+00	1.010216e+00	1.005603e+00	1.000913e+00	9.964118e-01	9.923836e-01	9.890636e-01	9.865307e-01	9.846646e-01	9.832260e-01	9.819614e-01	9.808094e-01	9.803282e-01	9.809902e-01	9.821868e-01	9.834632e-01	9.849301e-01	9.868525e-01	9.894636e-01	9.928644e-01	9.969495e-01	1.001456e+00	1.006087e+00	1.010563e+00	1.014438e+00	1.016822e+00	1.017531e+00	1.017577e+00	1.017142e+00	1.015425e+00	1.011762e+00	1.007108e+00	1.005064e+00	9.991715e-01	9.992031e-01	9.991867e-01	9.991877e-01	9.991896e-01	9.991907e-01	9.991904e-01	9.991878e-01	9.991848e-01	9.991829e-01	9.991809e-01	9.991783e-01	9.991750e-01	9.991713e-01	9.991671e-01	9.991622e-01	9.991565e-01	9.991517e-01	9.991473e-01	9.991437e-01	9.991405e-01	9.991337e-01	9.991274e-01	9.991191e-01	9.991090e-01	9.991000e-01	9.990913e-01	9.990823e-01	9.990746e-01	9.990686e-01	9.990638e-01	9.990586e-01	9.990519e-01	9.990426e-01	9.990302e-01	9.990144e-01	9.989959e-01	9.989762e-01	9.989565e-01	9.989378e-01	9.989207e-01	9.989046e-01	9.988888e-01	9.988724e-01	9.988545e-01	9.988347e-01	9.988127e-01	9.987887e-01	9.987631e-01	9.987358e-01	9.987057e-01	9.986709e-01	9.986311e-01	9.985909e-01	9.985527e-01	9.985140e-01	9.984807e-01	9.984894e-01	9.987092e-01	9.997220e-01	1.002607e+00	1.007618e+00	1.012881e+00	1.016361e+00	1.017800e+00	1.018046e+00	1.017875e+00	1.016998e+00	1.014416e+00	1.010299e+00	1.005643e+00	1.000993e+00	9.965455e-01	9.925402e-01	9.892067e-01	9.866407e-01	9.847338e-01	9.832534e-01	9.819547e-01	9.807899e-01	9.803078e-01	9.809707e-01	9.821833e-01	9.834963e-01	9.850048e-01	9.869630e-01	9.896018e-01	9.930110e-01	9.970708e-01	1.001529e+00	1.006133e+00	1.010656e+00	1.014488e+00	1.016692e+00	1.017307e+00	1.017354e+00	1.016939e+00	1.015280e+00	1.011715e+00	1.007129e+00	1.005122e+00	9.991747e-01	9.992052e-01	9.991895e-01	9.991901e-01	9.991912e-01	9.991916e-01	9.991910e-01	9.991890e-01	9.991865e-01	9.991839e-01	9.991811e-01	9.991777e-01	9.991736e-01	9.991695e-01	9.991656e-01	9.991617e-01	9.991574e-01	9.991538e-01	9.991499e-01	9.991460e-01	9.991427e-01	9.991363e-01	9.991314e-01	9.991206e-01	9.991107e-01	9.991010e-01	9.990912e-01	9.990821e-01	9.990747e-01	9.990690e-01	9.990643e-01	9.990593e-01	9.990529e-01	9.990432e-01	9.990300e-01	9.990141e-01	9.989960e-01	9.989766e-01	9.989570e-01	9.989385e-01	9.989214e-01	9.989053e-01	9.988895e-01	9.988731e-01	9.988553e-01	9.988356e-01	9.988137e-01	9.987897e-01	9.987640e-01	9.987365e-01	9.987062e-01	9.986710e-01	9.986307e-01	9.985902e-01	9.985520e-01	9.985132e-01	9.984793e-01	9.984884e-01	9.987100e-01	9.997244e-01	1.002603e+00	1.007574e+00	1.012764e+00	1.016181e+00	1.017596e+00	1.017838e+00	1.017675e+00	1.016890e+00	1.014494e+00	1.010476e+00	1.005794e+00	1.001130e+00	9.967214e-01	9.927391e-01	9.893894e-01	9.867830e-01	9.848329e-01	9.833010e-01	9.819657e-01	9.808189e-01	9.803592e-01	9.809900e-01	9.821941e-01	9.835473e-01	9.851068e-01	9.871081e-01	9.897847e-01	9.932045e-01	9.972369e-01	1.001662e+00	1.006288e+00	1.010830e+00	1.014538e+00	1.016552e+00	1.017093e+00	1.017135e+00	1.016725e+00	1.015094e+00	1.011608e+00	1.007122e+00	1.005175e+00	9.991787e-01	9.992042e-01	9.991915e-01	9.991925e-01	9.991924e-01	9.991921e-01	9.991911e-01	9.991885e-01	9.991865e-01	9.991844e-01	9.991814e-01	9.991781e-01	9.991741e-01	9.991700e-01	9.991662e-01	9.991627e-01	9.991586e-01	9.991547e-01	9.991511e-01	9.991473e-01	9.991439e-01	9.991377e-01	9.991325e-01	9.991217e-01	9.991115e-01	9.991022e-01	9.990928e-01	9.990842e-01	9.990771e-01	9.990712e-01	9.990664e-01	9.990604e-01	9.990524e-01	9.990421e-01	9.990291e-01	9.990133e-01	9.989952e-01	9.989759e-01	9.989567e-01	9.989386e-01	9.989217e-01	9.989056e-01	9.988898e-01	9.988733e-01	9.988555e-01	9.988359e-01	9.988141e-01	9.987903e-01	9.987647e-01	9.987372e-01	9.987067e-01	9.986712e-01	9.986305e-01	9.985896e-01	9.985509e-01	9.985115e-01	9.984779e-01	9.984910e-01	9.987242e-01	9.997492e-01	1.002598e+00	1.007479e+00	1.012571e+00	1.015941e+00	1.017354e+00	1.017608e+00	1.017458e+00	1.016759e+00	1.014554e+00	1.010687e+00	1.006019e+00	1.001333e+00	9.969381e-01	9.929727e-01	9.896053e-01	9.869506e-01	9.849381e-01	9.833478e-01	9.819802e-01	9.808756e-01	9.804523e-01	9.810318e-01	9.822053e-01	9.835979e-01	9.852171e-01	9.872817e-01	9.900056e-01	9.934377e-01	9.974479e-01	1.001859e+00	1.006511e+00	1.011023e+00	1.014567e+00	1.016394e+00	1.016862e+00	1.016895e+00	1.016475e+00	1.014850e+00	1.011435e+00	1.007097e+00	1.005235e+00	9.991793e-01	9.991997e-01	9.991909e-01	9.991919e-01	9.991921e-01	9.991909e-01	9.991894e-01	9.991871e-01	9.991847e-01	9.991826e-01	9.991808e-01	9.991783e-01	9.991753e-01	9.991719e-01	9.991683e-01	9.991644e-01	9.991601e-01	9.991542e-01	9.991514e-01	9.991470e-01	9.991435e-01	9.991377e-01	9.991310e-01	9.991209e-01	9.991114e-01	9.991024e-01	9.990936e-01	9.990854e-01	9.990781e-01	9.990718e-01	9.990652e-01	9.990584e-01	9.990501e-01	9.990401e-01	9.990270e-01	9.990110e-01	9.989929e-01	9.989735e-01	9.989545e-01	9.989364e-01	9.989195e-01	9.989034e-01	9.988874e-01	9.988708e-01	9.988529e-01	9.988332e-01	9.988116e-01	9.987882e-01	9.987629e-01	9.987354e-01	9.987052e-01	9.986696e-01	9.986288e-01	9.985881e-01	9.985480e-01	9.985081e-01	9.984768e-01	9.984971e-01	9.987489e-01	9.997962e-01	1.002602e+00	1.007343e+00	1.012305e+00	1.015632e+00	1.017060e+00	1.017339e+00	1.017206e+00	1.016590e+00	1.014584e+00	1.010900e+00	1.006293e+00	1.001593e+00	9.971906e-01	9.932321e-01	9.898437e-01	9.871278e-01	9.850350e-01	9.833719e-01	9.819768e-01	9.809399e-01	9.805715e-01	9.810769e-01	9.821953e-01	9.836264e-01	9.853229e-01	9.874686e-01	9.902518e-01	9.936996e-01	9.976984e-01	1.002115e+00	1.006773e+00	1.011209e+00	1.014561e+00	1.016204e+00	1.016595e+00	1.016614e+00	1.016171e+00	1.014541e+00	1.011201e+00	1.007064e+00	1.005308e+00	9.991774e-01	9.991952e-01	9.991886e-01	9.991900e-01	9.991895e-01	9.991889e-01	9.991870e-01	9.991847e-01	9.991818e-01	9.991799e-01	9.991780e-01	9.991766e-01	9.991745e-01	9.991720e-01	9.991688e-01	9.991648e-01	9.991593e-01	9.991540e-01	9.991478e-01	9.991451e-01	9.991411e-01	9.991353e-01	9.991278e-01	9.991175e-01	9.991102e-01	9.991012e-01	9.990925e-01	9.990842e-01	9.990766e-01	9.990695e-01	9.990627e-01	9.990555e-01	9.990475e-01	9.990374e-01	9.990241e-01	9.990079e-01	9.989896e-01	9.989702e-01	9.989511e-01	9.989329e-01	9.989158e-01	9.988994e-01	9.988832e-01	9.988663e-01	9.988481e-01	9.988283e-01	9.988067e-01	9.987835e-01	9.987584e-01	9.987310e-01	9.987005e-01	9.986647e-01	9.986243e-01	9.985838e-01	9.985430e-01	9.985028e-01	9.984746e-01	9.985054e-01	9.987827e-01	9.998556e-01	1.002615e+00	1.007182e+00	1.011980e+00	1.015259e+00	1.016710e+00	1.017018e+00	1.016903e+00	1.016378e+00	1.014572e+00	1.011102e+00	1.006594e+00	1.001897e+00	9.974824e-01	9.935214e-01	9.901062e-01	9.873158e-01	9.851204e-01	9.833653e-01	9.819501e-01	9.810081e-01	9.807136e-01	9.811229e-01	9.821613e-01	9.836275e-01	9.854201e-01	9.876697e-01	9.905230e-01	9.939916e-01	9.979894e-01	1.002415e+00	1.007059e+00	1.011379e+00	1.014505e+00	1.015956e+00	1.016277e+00	1.016281e+00	1.015810e+00	1.014170e+00	1.010923e+00	1.007026e+00	1.005396e+00	9.991769e-01	9.991902e-01	9.991856e-01	9.991874e-01	9.991866e-01	9.991859e-01	9.991844e-01	9.991822e-01	9.991793e-01	9.991767e-01	9.991748e-01	9.991733e-01	9.991721e-01	9.991702e-01	9.991674e-01	9.991632e-01	9.991572e-01	9.991513e-01	9.991452e-01	9.991407e-01	9.991372e-01	9.991317e-01	9.991240e-01	9.991176e-01	9.991077e-01	9.990993e-01	9.990905e-01	9.990822e-01	9.990746e-01	9.990673e-01	9.990603e-01	9.990530e-01	9.990445e-01	9.990341e-01	9.990201e-01	9.990038e-01	9.989854e-01	9.989662e-01	9.989471e-01	9.989288e-01	9.989114e-01	9.988947e-01	9.988782e-01	9.988611e-01	9.988428e-01	9.988230e-01	9.988016e-01	9.987785e-01	9.987534e-01	9.987257e-01	9.986944e-01	9.986582e-01	9.986180e-01	9.985776e-01	9.985370e-01	9.984964e-01	9.984711e-01	9.985156e-01	9.988234e-01	9.999275e-01	1.002630e+00	1.007003e+00	1.011611e+00	1.014833e+00	1.016313e+00	1.016654e+00	1.016555e+00	1.016110e+00	1.014517e+00	1.011287e+00	1.006918e+00	1.002250e+00	9.978248e-01	9.938509e-01	9.904010e-01	9.875243e-01	9.852043e-01	9.833464e-01	9.819214e-01	9.810991e-01	9.808883e-01	9.811879e-01	9.821260e-01	9.836171e-01	9.855205e-01	9.878921e-01	9.908248e-01	9.943232e-01	9.983319e-01	1.002763e+00	1.007362e+00	1.011524e+00	1.014399e+00	1.015650e+00	1.015912e+00	1.015904e+00	1.015401e+00	1.013751e+00	1.010617e+00	1.006985e+00	1.005497e+00	9.991758e-01	9.991864e-01	9.991818e-01	9.991840e-01	9.991833e-01	9.991826e-01	9.991814e-01	9.991797e-01	9.991768e-01	9.991738e-01	9.991713e-01	9.991704e-01	9.991695e-01	9.991679e-01	9.991649e-01	9.991605e-01	9.991542e-01	9.991478e-01	9.991421e-01	9.991367e-01	9.991323e-01	9.991275e-01	9.991220e-01	9.991132e-01	9.991047e-01	9.990963e-01	9.990880e-01	9.990800e-01	9.990725e-01	9.990652e-01	9.990582e-01	9.990505e-01	9.990414e-01	9.990303e-01	9.990157e-01	9.989990e-01	9.989807e-01	9.989617e-01	9.989428e-01	9.989245e-01	9.989068e-01	9.988897e-01	9.988729e-01	9.988557e-01	9.988375e-01	9.988179e-01	9.987967e-01	9.987737e-01	9.987485e-01	9.987204e-01	9.986884e-01	9.986514e-01	9.986111e-01	9.985708e-01	9.985304e-01	9.984899e-01	9.984682e-01	9.985288e-01	9.988734e-01	1.000010e+00	1.002647e+00	1.006808e+00	1.011207e+00	1.014363e+00	1.015876e+00	1.016258e+00	1.016175e+00	1.015802e+00	1.014419e+00	1.011450e+00	1.007254e+00	1.002647e+00	9.982202e-01	9.942265e-01	9.907321e-01	9.877580e-01	9.853037e-01	9.833422e-01	9.819304e-01	9.812363e-01	9.811004e-01	9.813018e-01	9.821194e-01	9.836185e-01	9.856341e-01	9.881373e-01	9.911609e-01	9.947008e-01	9.987286e-01	1.003154e+00	1.007674e+00	1.011639e+00	1.014252e+00	1.015308e+00	1.015515e+00	1.015492e+00	1.014952e+00	1.013294e+00	1.010292e+00	1.006944e+00	1.005605e+00	9.991739e-01	9.991837e-01	9.991778e-01	9.991804e-01	9.991795e-01	9.991790e-01	9.991780e-01	9.991769e-01	9.991744e-01	9.991712e-01	9.991692e-01	9.991679e-01	9.991673e-01	9.991661e-01	9.991635e-01	9.991583e-01	9.991516e-01	9.991447e-01	9.991379e-01	9.991326e-01	9.991279e-01	9.991230e-01	9.991172e-01	9.991098e-01	9.991017e-01	9.990938e-01	9.990858e-01	9.990780e-01	9.990709e-01	9.990638e-01	9.990562e-01	9.990479e-01	9.990377e-01	9.990257e-01	9.990105e-01	9.989936e-01	9.989755e-01	9.989569e-01	9.989383e-01	9.989200e-01	9.989021e-01	9.988846e-01	9.988674e-01	9.988499e-01	9.988317e-01	9.988123e-01	9.987913e-01	9.987683e-01	9.987430e-01	9.987145e-01	9.986819e-01	9.986441e-01	9.986035e-01	9.985633e-01	9.985228e-01	9.984833e-01	9.984666e-01	9.985452e-01	9.989306e-01	1.000103e+00	1.002666e+00	1.006601e+00	1.010776e+00	1.013854e+00	1.015401e+00	1.015831e+00	1.015768e+00	1.015461e+00	1.014284e+00	1.011586e+00	1.007589e+00	1.003072e+00	9.986596e-01	9.946456e-01	9.910976e-01	9.880152e-01	9.854212e-01	9.833699e-01	9.820003e-01	9.814296e-01	9.813574e-01	9.814760e-01	9.821674e-01	9.836479e-01	9.857611e-01	9.884044e-01	9.915296e-01	9.951219e-01	9.991698e-01	1.003573e+00	1.007984e+00	1.011722e+00	1.014054e+00	1.014931e+00	1.015094e+00	1.015049e+00	1.014464e+00	1.012805e+00	1.009953e+00	1.006904e+00	1.005718e+00	9.991713e-01	9.991809e-01	9.991734e-01	9.991761e-01	9.991750e-01	9.991746e-01	9.991741e-01	9.991737e-01	9.991719e-01	9.991689e-01	9.991672e-01	9.991660e-01	9.991648e-01	9.991634e-01	9.991603e-01	9.991555e-01	9.991487e-01	9.991417e-01	9.991348e-01	9.991291e-01	9.991237e-01	9.991187e-01	9.991131e-01	9.991062e-01	9.990987e-01	9.990914e-01	9.990839e-01	9.990771e-01	9.990696e-01	9.990617e-01	9.990532e-01	9.990440e-01	9.990328e-01	9.990196e-01	9.990042e-01	9.989874e-01	9.989697e-01	9.989517e-01	9.989336e-01	9.989155e-01	9.988975e-01	9.988797e-01	9.988621e-01	9.988443e-01	9.988258e-01	9.988063e-01	9.987852e-01	9.987622e-01	9.987367e-01	9.987078e-01	9.986744e-01	9.986359e-01	9.985947e-01	9.985545e-01	9.985141e-01	9.984759e-01	9.984652e-01	9.985638e-01	9.989938e-01	1.000203e+00	1.002689e+00	1.006388e+00	1.010326e+00	1.013313e+00	1.014888e+00	1.015370e+00	1.015333e+00	1.015081e+00	1.014100e+00	1.011685e+00	1.007914e+00	1.003509e+00	9.991279e-01	9.950988e-01	9.914913e-01	9.882930e-01	9.855577e-01	9.834410e-01	9.821419e-01	9.816907e-01	9.816423e-01	9.817198e-01	9.822853e-01	9.837118e-01	9.859107e-01	9.886916e-01	9.919273e-01	9.955779e-01	9.996409e-01	1.004005e+00	1.008279e+00	1.011764e+00	1.013812e+00	1.014517e+00	1.014640e+00	1.014571e+00	1.013940e+00	1.012290e+00	1.009605e+00	1.006865e+00	1.005837e+00	9.991683e-01	9.991778e-01	9.991690e-01	9.991717e-01	9.991703e-01	9.991698e-01	9.991698e-01	9.991701e-01	9.991692e-01	9.991668e-01	9.991648e-01	9.991642e-01	9.991624e-01	9.991598e-01	9.991566e-01	9.991517e-01	9.991451e-01	9.991380e-01	9.991308e-01	9.991243e-01	9.991182e-01	9.991135e-01	9.991087e-01	9.991028e-01	9.990962e-01	9.990895e-01	9.990824e-01	9.990748e-01	9.990670e-01	9.990585e-01	9.990498e-01	9.990391e-01	9.990264e-01	9.990124e-01	9.989967e-01	9.989803e-01	9.989632e-01	9.989459e-01	9.989284e-01	9.989107e-01	9.988929e-01	9.988750e-01	9.988571e-01	9.988390e-01	9.988202e-01	9.988004e-01	9.987791e-01	9.987558e-01	9.987299e-01	9.987006e-01	9.986665e-01	9.986268e-01	9.985849e-01	9.985445e-01	9.985044e-01	9.984669e-01	9.984624e-01	9.985835e-01	9.990612e-01	1.000307e+00	1.002715e+00	1.006177e+00	1.009864e+00	1.012744e+00	1.014337e+00	1.014875e+00	1.014867e+00	1.014659e+00	1.013860e+00	1.011737e+00	1.008214e+00	1.003944e+00	9.996126e-01	9.955765e-01	9.919063e-01	9.885889e-01	9.857266e-01	9.835691e-01	9.823705e-01	9.819995e-01	9.819367e-01	9.820241e-01	9.824827e-01	9.838276e-01	9.860854e-01	9.889982e-01	9.923482e-01	9.960587e-01	1.000128e+00	1.004434e+00	1.008544e+00	1.011752e+00	1.013511e+00	1.014062e+00	1.014158e+00	1.014054e+00	1.013380e+00	1.011750e+00	1.009257e+00	1.006832e+00	1.005964e+00	9.991650e-01	9.991747e-01	9.991647e-01	9.991676e-01	9.991658e-01	9.991653e-01	9.991654e-01	9.991664e-01	9.991664e-01	9.991647e-01	9.991624e-01	9.991616e-01	9.991593e-01	9.991562e-01	9.991513e-01	9.991468e-01	9.991409e-01	9.991337e-01	9.991264e-01	9.991192e-01	9.991124e-01	9.991081e-01	9.991041e-01	9.990991e-01	9.990936e-01	9.990872e-01	9.990798e-01	9.990722e-01	9.990650e-01	9.990561e-01	9.990454e-01	9.990335e-01	9.990196e-01	9.990047e-01	9.989888e-01	9.989726e-01	9.989562e-01	9.989396e-01	9.989226e-01	9.989052e-01	9.988876e-01	9.988698e-01	9.988518e-01	9.988335e-01	9.988145e-01	9.987945e-01	9.987729e-01	9.987493e-01	9.987232e-01	9.986935e-01	9.986583e-01	9.986174e-01	9.985745e-01	9.985339e-01	9.984936e-01	9.984563e-01	9.984582e-01	9.986040e-01	9.991309e-01	1.000414e+00	1.002745e+00	1.005974e+00	1.009401e+00	1.012152e+00	1.013754e+00	1.014345e+00	1.014372e+00	1.014197e+00	1.013557e+00	1.011721e+00	1.008473e+00	1.004367e+00	1.000107e+00	9.960700e-01	9.923341e-01	9.889016e-01	9.859412e-01	9.837898e-01	9.826953e-01	9.823353e-01	9.822487e-01	9.823631e-01	9.827854e-01	9.840236e-01	9.862994e-01	9.893212e-01	9.927836e-01	9.965544e-01	1.000621e+00	1.004846e+00	1.008768e+00	1.011679e+00	1.013153e+00	1.013569e+00	1.013642e+00	1.013500e+00	1.012784e+00	1.011193e+00	1.008913e+00	1.006809e+00	1.006101e+00	9.991620e-01	9.991719e-01	9.991607e-01	9.991640e-01	9.991621e-01	9.991615e-01	9.991616e-01	9.991628e-01	9.991636e-01	9.991624e-01	9.991598e-01	9.991577e-01	9.991552e-01	9.991512e-01	9.991465e-01	9.991402e-01	9.991350e-01	9.991288e-01	9.991211