# vtk DataFile Version 3.0
vtk output
ASCII
DATASET STRUCTURED_GRID
DIMENSIONS 101 101 1
POINTS 10201 double
0.000000e+00	0.000000e+00	0.0	1.000000e-02	0.000000e+00	0.0	2.000000e-02	0.000000e+00	0.0	3.000000e-02	0.000000e+00	0.0	4.000000e-02	0.000000e+00	0.0	5.000000e-02	0.000000e+00	0.0	6.000000e-02	0.000000e+00	0.0	7.000000e-02	0.000000e+00	0.0	8.000000e-02	0.000000e+00	0.0	9.000000e-02	0.000000e+00	0.0	1.000000e-01	0.000000e+00	0.0	1.100000e-01	0.000000e+00	0.0	1.200000e-01	0.000000e+00	0.0	1.300000e-01	0.000000e+00	0.0	1.400000e-01	0.000000e+00	0.0	1.500000e-01	0.000000e+00	0.0	1.600000e-01	0.000000e+00	0.0	1.700000e-01	0.000000e+00	0.0	1.800000e-01	0.000000e+00	0.0	1.900000e-01	0.000000e+00	0.0	2.000000e-01	0.000000e+00	0.0	2.100000e-01	0.000000e+00	0.0	2.200000e-01	0.000000e+00	0.0	2.300000e-01	0.000000e+00	0.0	2.400000e-01	0.000000e+00	0.0	2.500000e-01	0.000000e+00	0.0	2.600000e-01	0.000000e+00	0.0	2.700000e-01	0.000000e+00	0.0	2.800000e-01	0.000000e+00	0.0	2.900000e-01	0.000000e+00	0.0	3.000000e-01	0.000000e+00	0.0	3.100000e-01	0.000000e+00	0.0	3.200000e-01	0.000000e+00	0.0	3.300000e-01	0.000000e+00	0.0	3.400000e-01	0.000000e+00	0.0	3.500000e-01	0.000000e+00	0.0	3.600000e-01	0.000000e+00	0.0	3.700000e-01	0.000000e+00	0.0	3.800000e-01	0.000000e+00	0.0	3.900000e-01	0.000000e+00	0.0	4.000000e-01	0.000000e+00	0.0	4.100000e-01	0.000000e+00	0.0	4.200000e-01	0.000000e+00	0.0	4.300000e-01	0.000000e+00	0.0	4.400000e-01	0.000000e+00	0.0	4.500000e-01	0.000000e+00	0.0	4.600000e-01	0.000000e+00	0.0	4.700000e-01	0.000000e+00	0.0	4.800000e-01	0.000000e+00	0.0	4.900000e-01	0.000000e+00	0.0	5.000000e-01	0.000000e+00	0.0	5.100000e-01	0.000000e+00	0.0	5.200000e-01	0.000000e+00	0.0	5.300000e-01	0.000000e+00	0.0	5.400000e-01	0.000000e+00	0.0	5.500000e-01	0.000000e+00	0.0	5.600000e-01	0.000000e+00	0.0	5.700000e-01	0.000000e+00	0.0	5.800000e-01	0.000000e+00	0.0	5.900000e-01	0.000000e+00	0.0	6.000000e-01	0.000000e+00	0.0	6.100000e-01	0.000000e+00	0.0	6.200000e-01	0.000000e+00	0.0	6.300000e-01	0.000000e+00	0.0	6.400000e-01	0.000000e+00	0.0	6.500000e-01	0.000000e+00	0.0	6.600000e-01	0.000000e+00	0.0	6.700000e-01	0.000000e+00	0.0	6.800000e-01	0.000000e+00	0.0	6.900000e-01	0.000000e+00	0.0	7.000000e-01	0.000000e+00	0.0	7.100000e-01	0.000000e+00	0.0	7.200000e-01	0.000000e+00	0.0	7.300000e-01	0.000000e+00	0.0	7.400000e-01	0.000000e+00	0.0	7.500000e-01	0.000000e+00	0.0	7.600000e-01	0.000000e+00	0.0	7.700000e-01	0.000000e+00	0.0	7.800000e-01	0.000000e+00	0.0	7.900000e-01	0.000000e+00	0.0	8.000000e-01	0.000000e+00	0.0	8.100000e-01	0.000000e+00	0.0	8.200000e-01	0.000000e+00	0.0	8.300000e-01	0.000000e+00	0.0	8.400000e-01	0.000000e+00	0.0	8.500000e-01	0.000000e+00	0.0	8.600000e-01	0.000000e+00	0.0	8.700000e-01	0.000000e+00	0.0	8.800000e-01	0.000000e+00	0.0	8.900000e-01	0.000000e+00	0.0	9.000000e-01	0.000000e+00	0.0	9.100000e-01	0.000000e+00	0.0	9.200000e-01	0.000000e+00	0.0	9.300000e-01	0.000000e+00	0.0	9.400000e-01	0.000000e+00	0.0	9.500000e-01	0.000000e+00	0.0	9.600000e-01	0.000000e+00	0.0	9.700000e-01	0.000000e+00	0.0	9.800000e-01	0.000000e+00	0.0	9.900000e-01	0.000000e+00	0.0	1.000000e+00	0.000000e+00	0.0	0.000000e+00	1.000000e-02	0.0	1.000000e-02	1.000000e-02	0.0	2.000000e-02	1.000000e-02	0.0	3.000000e-02	1.000000e-02	0.0	4.000000e-02	1.000000e-02	0.0	5.000000e-02	1.000000e-02	0.0	6.000000e-02	1.000000e-02	0.0	7.000000e-02	1.000000e-02	0.0	8.000000e-02	1.000000e-02	0.0	9.000000e-02	1.000000e-02	0.0	1.000000e-01	1.000000e-02	0.0	1.100000e-01	1.000000e-02	0.0	1.200000e-01	1.000000e-02	0.0	1.300000e-01	1.000000e-02	0.0	1.400000e-01	1.000000e-02	0.0	1.500000e-01	1.000000e-02	0.0	1.600000e-01	1.000000e-02	0.0	1.700000e-01	1.000000e-02	0.0	1.800000e-01	1.000000e-02	0.0	1.900000e-01	1.000000e-02	0.0	2.000000e-01	1.000000e-02	0.0	2.100000e-01	1.000000e-02	0.0	2.200000e-01	1.000000e-02	0.0	2.300000e-01	1.000000e-02	0.0	2.400000e-01	1.000000e-02	0.0	2.500000e-01	1.000000e-02	0.0	2.600000e-01	1.000000e-02	0.0	2.700000e-01	1.000000e-02	0.0	2.800000e-01	1.000000e-02	0.0	2.900000e-01	1.000000e-02	0.0	3.000000e-01	1.000000e-02	0.0	3.100000e-01	1.000000e-02	0.0	3.200000e-01	1.000000e-02	0.0	3.300000e-01	1.000000e-02	0.0	3.400000e-01	1.000000e-02	0.0	3.500000e-01	1.000000e-02	0.0	3.600000e-01	1.000000e-02	0.0	3.700000e-01	1.000000e-02	0.0	3.800000e-01	1.000000e-02	0.0	3.900000e-01	1.000000e-02	0.0	4.000000e-01	1.000000e-02	0.0	4.100000e-01	1.000000e-02	0.0	4.200000e-01	1.000000e-02	0.0	4.300000e-01	1.000000e-02	0.0	4.400000e-01	1.000000e-02	0.0	4.500000e-01	1.000000e-02	0.0	4.600000e-01	1.000000e-02	0.0	4.700000e-01	1.000000e-02	0.0	4.800000e-01	1.000000e-02	0.0	4.900000e-01	1.000000e-02	0.0	5.000000e-01	1.000000e-02	0.0	5.100000e-01	1.000000e-02	0.0	5.200000e-01	1.000000e-02	0.0	5.300000e-01	1.000000e-02	0.0	5.400000e-01	1.000000e-02	0.0	5.500000e-01	1.000000e-02	0.0	5.600000e-01	1.000000e-02	0.0	5.700000e-01	1.000000e-02	0.0	5.800000e-01	1.000000e-02	0.0	5.900000e-01	1.000000e-02	0.0	6.000000e-01	1.000000e-02	0.0	6.100000e-01	1.000000e-02	0.0	6.200000e-01	1.000000e-02	0.0	6.300000e-01	1.000000e-02	0.0	6.400000e-01	1.000000e-02	0.0	6.500000e-01	1.000000e-02	0.0	6.600000e-01	1.000000e-02	0.0	6.700000e-01	1.000000e-02	0.0	6.800000e-01	1.000000e-02	0.0	6.900000e-01	1.000000e-02	0.0	7.000000e-01	1.000000e-02	0.0	7.100000e-01	1.000000e-02	0.0	7.200000e-01	1.000000e-02	0.0	7.300000e-01	1.000000e-02	0.0	7.400000e-01	1.000000e-02	0.0	7.500000e-01	1.000000e-02	0.0	7.600000e-01	1.000000e-02	0.0	7.700000e-01	1.000000e-02	0.0	7.800000e-01	1.000000e-02	0.0	7.900000e-01	1.000000e-02	0.0	8.000000e-01	1.000000e-02	0.0	8.100000e-01	1.000000e-02	0.0	8.200000e-01	1.000000e-02	0.0	8.300000e-01	1.000000e-02	0.0	8.400000e-01	1.000000e-02	0.0	8.500000e-01	1.000000e-02	0.0	8.600000e-01	1.000000e-02	0.0	8.700000e-01	1.000000e-02	0.0	8.800000e-01	1.000000e-02	0.0	8.900000e-01	1.000000e-02	0.0	9.000000e-01	1.000000e-02	0.0	9.100000e-01	1.000000e-02	0.0	9.200000e-01	1.000000e-02	0.0	9.300000e-01	1.000000e-02	0.0	9.400000e-01	1.000000e-02	0.0	9.500000e-01	1.000000e-02	0.0	9.600000e-01	1.000000e-02	0.0	9.700000e-01	1.000000e-02	0.0	9.800000e-01	1.000000e-02	0.0	9.900000e-01	1.000000e-02	0.0	1.000000e+00	1.000000e-02	0.0	0.000000e+00	2.000000e-02	0.0	1.000000e-02	2.000000e-02	0.0	2.000000e-02	2.000000e-02	0.0	3.000000e-02	2.000000e-02	0.0	4.000000e-02	2.000000e-02	0.0	5.000000e-02	2.000000e-02	0.0	6.000000e-02	2.000000e-02	0.0	7.000000e-02	2.000000e-02	0.0	8.000000e-02	2.000000e-02	0.0	9.000000e-02	2.000000e-02	0.0	1.000000e-01	2.000000e-02	0.0	1.100000e-01	2.000000e-02	0.0	1.200000e-01	2.000000e-02	0.0	1.300000e-01	2.000000e-02	0.0	1.400000e-01	2.000000e-02	0.0	1.500000e-01	2.000000e-02	0.0	1.600000e-01	2.000000e-02	0.0	1.700000e-01	2.000000e-02	0.0	1.800000e-01	2.000000e-02	0.0	1.900000e-01	2.000000e-02	0.0	2.000000e-01	2.000000e-02	0.0	2.100000e-01	2.000000e-02	0.0	2.200000e-01	2.000000e-02	0.0	2.300000e-01	2.000000e-02	0.0	2.400000e-01	2.000000e-02	0.0	2.500000e-01	2.000000e-02	0.0	2.600000e-01	2.000000e-02	0.0	2.700000e-01	2.000000e-02	0.0	2.800000e-01	2.000000e-02	0.0	2.900000e-01	2.000000e-02	0.0	3.000000e-01	2.000000e-02	0.0	3.100000e-01	2.000000e-02	0.0	3.200000e-01	2.000000e-02	0.0	3.300000e-01	2.000000e-02	0.0	3.400000e-01	2.000000e-02	0.0	3.500000e-01	2.000000e-02	0.0	3.600000e-01	2.000000e-02	0.0	3.700000e-01	2.000000e-02	0.0	3.800000e-01	2.000000e-02	0.0	3.900000e-01	2.000000e-02	0.0	4.000000e-01	2.000000e-02	0.0	4.100000e-01	2.000000e-02	0.0	4.200000e-01	2.000000e-02	0.0	4.300000e-01	2.000000e-02	0.0	4.400000e-01	2.000000e-02	0.0	4.500000e-01	2.000000e-02	0.0	4.600000e-01	2.000000e-02	0.0	4.700000e-01	2.000000e-02	0.0	4.800000e-01	2.000000e-02	0.0	4.900000e-01	2.000000e-02	0.0	5.000000e-01	2.000000e-02	0.0	5.100000e-01	2.000000e-02	0.0	5.200000e-01	2.000000e-02	0.0	5.300000e-01	2.000000e-02	0.0	5.400000e-01	2.000000e-02	0.0	5.500000e-01	2.000000e-02	0.0	5.600000e-01	2.000000e-02	0.0	5.700000e-01	2.000000e-02	0.0	5.800000e-01	2.000000e-02	0.0	5.900000e-01	2.000000e-02	0.0	6.000000e-01	2.000000e-02	0.0	6.100000e-01	2.000000e-02	0.0	6.200000e-01	2.000000e-02	0.0	6.300000e-01	2.000000e-02	0.0	6.400000e-01	2.000000e-02	0.0	6.500000e-01	2.000000e-02	0.0	6.600000e-01	2.000000e-02	0.0	6.700000e-01	2.000000e-02	0.0	6.800000e-01	2.000000e-02	0.0	6.900000e-01	2.000000e-02	0.0	7.000000e-01	2.000000e-02	0.0	7.100000e-01	2.000000e-02	0.0	7.200000e-01	2.000000e-02	0.0	7.300000e-01	2.000000e-02	0.0	7.400000e-01	2.000000e-02	0.0	7.500000e-01	2.000000e-02	0.0	7.600000e-01	2.000000e-02	0.0	7.700000e-01	2.000000e-02	0.0	7.800000e-01	2.000000e-02	0.0	7.900000e-01	2.000000e-02	0.0	8.000000e-01	2.000000e-02	0.0	8.100000e-01	2.000000e-02	0.0	8.200000e-01	2.000000e-02	0.0	8.300000e-01	2.000000e-02	0.0	8.400000e-01	2.000000e-02	0.0	8.500000e-01	2.000000e-02	0.0	8.600000e-01	2.000000e-02	0.0	8.700000e-01	2.000000e-02	0.0	8.800000e-01	2.000000e-02	0.0	8.900000e-01	2.000000e-02	0.0	9.000000e-01	2.000000e-02	0.0	9.100000e-01	2.000000e-02	0.0	9.200000e-01	2.000000e-02	0.0	9.300000e-01	2.000000e-02	0.0	9.400000e-01	2.000000e-02	0.0	9.500000e-01	2.000000e-02	0.0	9.600000e-01	2.000000e-02	0.0	9.700000e-01	2.000000e-02	0.0	9.800000e-01	2.000000e-02	0.0	9.900000e-01	2.000000e-02	0.0	1.000000e+00	2.000000e-02	0.0	0.000000e+00	3.000000e-02	0.0	1.000000e-02	3.000000e-02	0.0	2.000000e-02	3.000000e-02	0.0	3.000000e-02	3.000000e-02	0.0	4.000000e-02	3.000000e-02	0.0	5.000000e-02	3.000000e-02	0.0	6.000000e-02	3.000000e-02	0.0	7.000000e-02	3.000000e-02	0.0	8.000000e-02	3.000000e-02	0.0	9.000000e-02	3.000000e-02	0.0	1.000000e-01	3.000000e-02	0.0	1.100000e-01	3.000000e-02	0.0	1.200000e-01	3.000000e-02	0.0	1.300000e-01	3.000000e-02	0.0	1.400000e-01	3.000000e-02	0.0	1.500000e-01	3.000000e-02	0.0	1.600000e-01	3.000000e-02	0.0	1.700000e-01	3.000000e-02	0.0	1.800000e-01	3.000000e-02	0.0	1.900000e-01	3.000000e-02	0.0	2.000000e-01	3.000000e-02	0.0	2.100000e-01	3.000000e-02	0.0	2.200000e-01	3.000000e-02	0.0	2.300000e-01	3.000000e-02	0.0	2.400000e-01	3.000000e-02	0.0	2.500000e-01	3.000000e-02	0.0	2.600000e-01	3.000000
[...]
POINT_DATA 10201

SCALARS Height double 1
LOOKUP_TABLE default
9.992451e-01	9.992645e-01	9.992521e-01	9.992498e-01	9.992490e-01	9.992487e-01	9.992469e-01	9.992407e-01	9.992338e-01	9.992280e-01	9.992230e-01	9.992200e-01	9.992191e-01	9.992196e-01	9.992200e-01	9.992195e-01	9.992192e-01	9.992178e-01	9.992196e-01	9.992197e-01	9.992165e-01	9.992027e-01	9.991898e-01	9.991795e-01	9.991737e-01	9.991705e-01	9.991652e-01	9.991569e-01	9.991462e-01	9.991349e-01	9.991240e-01	9.991143e-01	9.991062e-01	9.990998e-01	9.990937e-01	9.990871e-01	9.990775e-01	9.990645e-01	9.990483e-01	9.990305e-01	9.990127e-01	9.989960e-01	9.989808e-01	9.989664e-01	9.989520e-01	9.989368e-01	9.989198e-01	9.989004e-01	9.988777e-01	9.988514e-01	9.988236e-01	9.987985e-01	9.987774e-01	9.987700e-01	9.988222e-01	9.990550e-01	9.997906e-01	1.001641e+00	1.005253e+00	1.010340e+00	1.015164e+00	1.017958e+00	1.018772e+00	1.018693e+00	1.017819e+00	1.015922e+00	1.012753e+00	1.008598e+00	1.003994e+00	9.994788e-01	9.954100e-01	9.920392e-01	9.895370e-01	9.879416e-01	9.871119e-01	9.867225e-01	9.864360e-01	9.862419e-01	9.861853e-01	9.862542e-01	9.862982e-01	9.862403e-01	9.861808e-01	9.862538e-01	9.864561e-01	9.867517e-01	9.871820e-01	9.881241e-01	9.898500e-01	9.924579e-01	9.958707e-01	9.998983e-01	1.004293e+00	1.008715e+00	1.012664e+00	1.015738e+00	1.018120e+00	1.020588e+00	1.024214e+00	1.027968e+00	1.031720e+00	9.992469e-01	9.992731e-01	9.992414e-01	9.992392e-01	9.992400e-01	9.992418e-01	9.992406e-01	9.992378e-01	9.992362e-01	9.992318e-01	9.992269e-01	9.992220e-01	9.992178e-01	9.992148e-01	9.992134e-01	9.992132e-01	9.992128e-01	9.992112e-01	9.992061e-01	9.991986e-01	9.991915e-01	9.991819e-01	9.991780e-01	9.991692e-01	9.991607e-01	9.991568e-01	9.991482e-01	9.991387e-01	9.991294e-01	9.991212e-01	9.991145e-01	9.991090e-01	9.991042e-01	9.990996e-01	9.990939e-01	9.990860e-01	9.990752e-01	9.990610e-01	9.990438e-01	9.990252e-01	9.990070e-01	9.989894e-01	9.989733e-01	9.989582e-01	9.989432e-01	9.989275e-01	9.989103e-01	9.988906e-01	9.988673e-01	9.988400e-01	9.988112e-01	9.987854e-01	9.987626e-01	9.987419e-01	9.987466e-01	9.988757e-01	9.994555e-01	1.001260e+00	1.005156e+00	1.010582e+00	1.015337e+00	1.017956e+00	1.018718e+00	1.018679e+00	1.018057e+00	1.016089e+00	1.012772e+00	1.008502e+00	1.003843e+00	9.992844e-01	9.951849e-01	9.918055e-01	9.893485e-01	9.878425e-01	9.870790e-01	9.866891e-01	9.863489e-01	9.861156e-01	9.861013e-01	9.862174e-01	9.862758e-01	9.861962e-01	9.860856e-01	9.861270e-01	9.863815e-01	9.867188e-01	9.871507e-01	9.880134e-01	9.896561e-01	9.922286e-01	9.956540e-01	9.997141e-01	1.004151e+00	1.008615e+00	1.012653e+00	1.015827e+00	1.018059e+00	1.020271e+00	1.024106e+00	1.028149e+00	1.032154e+00	9.992392e-01	9.992662e-01	9.992384e-01	9.992372e-01	9.992374e-01	9.992383e-01	9.992378e-01	9.992350e-01	9.992314e-01	9.992274e-01	9.992230e-01	9.992189e-01	9.992153e-01	9.992124e-01	9.992102e-01	9.992085e-01	9.992075e-01	9.992081e-01	9.992074e-01	9.992033e-01	9.991979e-01	9.991882e-01	9.991784e-01	9.991686e-01	9.991585e-01	9.991518e-01	9.991457e-01	9.991386e-01	9.991308e-01	9.991229e-01	9.991153e-01	9.991084e-01	9.991023e-01	9.990966e-01	9.990903e-01	9.990821e-01	9.990712e-01	9.990573e-01	9.990406e-01	9.990225e-01	9.990041e-01	9.989862e-01	9.989694e-01	9.989536e-01	9.989382e-01	9.989225e-01	9.989057e-01	9.988866e-01	9.988637e-01	9.988363e-01	9.988079e-01	9.987818e-01	9.987570e-01	9.987364e-01	9.987421e-01	9.988699e-01	9.994551e-01	1.001329e+00	1.005343e+00	1.010721e+00	1.015260e+00	1.017737e+00	1.018510e+00	1.018517e+00	1.018035e+00	1.016117e+00	1.012684e+00	1.008441e+00	1.003891e+00	9.994008e-01	9.953260e-01	9.919683e-01	9.895104e-01	9.879636e-01	9.871445e-01	9.867204e-01	9.863589e-01	9.860729e-01	9.860646e-01	9.862130e-01	9.862816e-01	9.861856e-01	9.860420e-01	9.860908e-01	9.864007e-01	9.867591e-01	9.872285e-01	9.881471e-01	9.898146e-01	9.923741e-01	9.957748e-01	9.998120e-01	1.004182e+00	1.008542e+00	1.012566e+00	1.015843e+00	1.018025e+00	1.020165e+00	1.024040e+00	1.028083e+00	1.031999e+00	9.992359e-01	9.992594e-01	9.992325e-01	9.992316e-01	9.992317e-01	9.992322e-01	9.992321e-01	9.992301e-01	9.992279e-01	9.992257e-01	9.992229e-01	9.992198e-01	9.992165e-01	9.992138e-01	9.992121e-01	9.992112e-01	9.992110e-01	9.992111e-01	9.992084e-01	9.992021e-01	9.991964e-01	9.991883e-01	9.991808e-01	9.991726e-01	9.991625e-01	9.991541e-01	9.991468e-01	9.991391e-01	9.991314e-01	9.991234e-01	9.991155e-01	9.991083e-01	9.991020e-01	9.990954e-01	9.990880e-01	9.990791e-01	9.990677e-01	9.990538e-01	9.990375e-01	9.990196e-01	9.990011e-01	9.989829e-01	9.989655e-01	9.989492e-01	9.989335e-01	9.989177e-01	9.989012e-01	9.988826e-01	9.988600e-01	9.988326e-01	9.988037e-01	9.987773e-01	9.987522e-01	9.987294e-01	9.987283e-01	9.988392e-01	9.994092e-01	1.001308e+00	1.005386e+00	1.010768e+00	1.015210e+00	1.017581e+00	1.018327e+00	1.018345e+00	1.017952e+00	1.016210e+00	1.012756e+00	1.008450e+00	1.003942e+00	9.995163e-01	9.954575e-01	9.920861e-01	9.896045e-01	9.880365e-01	9.871968e-01	9.867574e-01	9.863793e-01	9.860345e-01	9.859704e-01	9.861369e-01	9.862264e-01	9.861030e-01	9.859516e-01	9.860650e-01	9.864284e-01	9.868038e-01	9.872882e-01	9.882239e-01	9.899088e-01	9.924829e-01	9.958898e-01	9.999074e-01	1.004217e+00	1.008552e+00	1.012647e+00	1.015912e+00	1.017904e+00	1.019979e+00	1.023901e+00	1.027988e+00	1.031862e+00	9.992314e-01	9.992531e-01	9.992274e-01	9.992269e-01	9.992265e-01	9.992267e-01	9.992263e-01	9.992253e-01	9.992237e-01	9.992224e-01	9.992204e-01	9.992183e-01	9.992157e-01	9.992129e-01	9.992101e-01	9.992075e-01	9.992062e-01	9.992047e-01	9.992023e-01	9.991975e-01	9.991923e-01	9.991845e-01	9.991758e-01	9.991673e-01	9.991579e-01	9.991500e-01	9.991438e-01	9.991373e-01	9.991300e-01	9.991217e-01	9.991130e-01	9.991051e-01	9.990985e-01	9.990921e-01	9.990848e-01	9.990755e-01	9.990638e-01	9.990496e-01	9.990332e-01	9.990151e-01	9.989962e-01	9.989775e-01	9.989598e-01	9.989431e-01	9.989271e-01	9.989113e-01	9.988947e-01	9.988765e-01	9.988542e-01	9.988269e-01	9.987980e-01	9.987714e-01	9.987457e-01	9.987218e-01	9.987174e-01	9.988206e-01	9.993836e-01	1.001296e+00	1.005400e+00	1.010756e+00	1.015114e+00	1.017401e+00	1.018116e+00	1.018135e+00	1.017800e+00	1.016217e+00	1.012865e+00	1.008520e+00	1.004009e+00	9.996376e-01	9.956264e-01	9.922592e-01	9.897527e-01	9.881441e-01	9.872656e-01	9.867990e-01	9.864036e-01	9.860087e-01	9.858588e-01	9.859999e-01	9.860993e-01	9.859662e-01	9.858535e-01	9.860529e-01	9.864586e-01	9.868519e-01	9.873665e-01	9.883384e-01	9.900556e-01	9.926448e-01	9.960394e-01	1.000008e+00	1.004269e+00	1.008625e+00	1.012755e+00	1.015889e+00	1.017729e+00	1.019779e+00	1.023712e+00	1.027807e+00	1.031633e+00	9.992267e-01	9.992468e-01	9.992225e-01	9.992219e-01	9.992219e-01	9.992227e-01	9.992229e-01	9.992220e-01	9.992208e-01	9.992197e-01	9.992183e-01	9.992169e-01	9.992151e-01	9.992124e-01	9.992088e-01	9.992048e-01	9.992006e-01	9.991984e-01	9.991955e-01	9.991920e-01	9.991873e-01	9.991794e-01	9.991712e-01	9.991622e-01	9.991536e-01	9.991480e-01	9.991423e-01	9.991361e-01	9.991284e-01	9.991196e-01	9.991108e-01	9.991030e-01	9.990963e-01	9.990902e-01	9.990829e-01	9.990737e-01	9.990618e-01	9.990471e-01	9.990299e-01	9.990109e-01	9.989913e-01	9.989722e-01	9.989541e-01	9.989371e-01	9.989209e-01	9.989048e-01	9.988880e-01	9.988697e-01	9.988475e-01	9.988202e-01	9.987912e-01	9.987646e-01	9.987389e-01	9.987142e-01	9.987088e-01	9.988117e-01	9.993748e-01	1.001288e+00	1.005379e+00	1.010686e+00	1.014965e+00	1.017201e+00	1.017893e+00	1.017908e+00	1.017607e+00	1.016166e+00	1.012969e+00	1.008643e+00	1.004104e+00	9.997623e-01	9.958077e-01	9.924621e-01	9.899392e-01	9.882888e-01	9.873591e-01	9.868443e-01	9.864258e-01	9.859796e-01	9.857299e-01	9.857957e-01	9.858785e-01	9.857720e-01	9.857441e-01	9.860387e-01	9.864867e-01	9.869030e-01	9.874665e-01	9.884876e-01	9.902391e-01	9.928372e-01	9.962025e-01	1.000113e+00	1.004357e+00	1.008748e+00	1.012846e+00	1.015816e+00	1.017533e+00	1.019577e+00	1.023492e+00	1.027548e+00	1.031308e+00	9.992225e-01	9.992408e-01	9.992204e-01	9.992198e-01	9.992196e-01	9.992211e-01	9.992221e-01	9.992216e-01	9.992207e-01	9.992191e-01	9.992176e-01	9.992161e-01	9.992141e-01	9.992114e-01	9.992076e-01	9.992028e-01	9.991975e-01	9.991941e-01	9.991904e-01	9.991874e-01	9.991829e-01	9.991748e-01	9.991680e-01	9.991589e-01	9.991511e-01	9.991460e-01	9.991403e-01	9.991332e-01	9.991249e-01	9.991161e-01	9.991078e-01	9.991008e-01	9.990948e-01	9.990889e-01	9.990817e-01	9.990725e-01	9.990605e-01	9.990454e-01	9.990277e-01	9.990083e-01	9.989884e-01	9.989692e-01	9.989512e-01	9.989344e-01	9.989182e-01	9.989022e-01	9.988852e-01	9.988665e-01	9.988446e-01	9.988169e-01	9.987878e-01	9.987609e-01	9.987343e-01	9.987097e-01	9.987059e-01	9.988146e-01	9.993871e-01	1.001293e+00	1.005330e+00	1.010548e+00	1.014762e+00	1.016971e+00	1.017657e+00	1.017671e+00	1.017394e+00	1.016088e+00	1.013073e+00	1.008820e+00	1.004258e+00	9.999291e-01	9.960186e-01	9.927003e-01	9.901659e-01	9.884722e-01	9.874786e-01	9.869132e-01	9.864617e-01	9.859592e-01	9.855983e-01	9.855522e-01	9.856012e-01	9.855451e-01	9.856352e-01	9.860314e-01	9.865265e-01	9.869791e-01	9.875938e-01	9.886740e-01	9.904631e-01	9.930655e-01	9.963972e-01	1.000264e+00	1.004505e+00	1.008917e+00	1.012931e+00	1.015726e+00	1.017346e+00	1.019381e+00	1.023239e+00	1.027198e+00	1.030868e+00	9.992194e-01	9.992356e-01	9.992192e-01	9.992190e-01	9.992191e-01	9.992207e-01	9.992221e-01	9.992222e-01	9.992219e-01	9.992208e-01	9.992185e-01	9.992162e-01	9.992137e-01	9.992107e-01	9.992071e-01	9.992026e-01	9.991986e-01	9.991939e-01	9.991914e-01	9.991865e-01	9.991821e-01	9.991742e-01	9.991680e-01	9.991597e-01	9.991528e-01	9.991461e-01	9.991392e-01	9.991309e-01	9.991221e-01	9.991136e-01	9.991062e-01	9.990998e-01	9.990936e-01	9.990873e-01	9.990800e-01	9.990708e-01	9.990588e-01	9.990437e-01	9.990259e-01	9.990064e-01	9.989865e-01	9.989674e-01	9.989496e-01	9.989331e-01	9.989173e-01	9.989014e-01	9.988847e-01	9.988660e-01	9.988441e-01	9.988166e-01	9.987878e-01	9.987602e-01	9.987327e-01	9.987092e-01	9.987095e-01	9.988296e-01	9.994229e-01	1.001322e+00	1.005264e+00	1.010352e+00	1.014498e+00	1.016703e+00	1.017403e+00	1.017425e+00	1.017175e+00	1.016003e+00	1.013191e+00	1.009058e+00	1.004512e+00	1.000171e+00	9.962814e-01	9.929854e-01	9.904357e-01	9.886912e-01	9.876312e-01	9.870076e-01	9.865171e-01	9.859634e-01	9.854825e-01	9.852990e-01	9.852980e-01	9.853110e-01	9.855427e-01	9.860463e-01	9.865853e-01	9.870786e-01	9.877534e-01	9.888970e-01	9.907317e-01	9.933423e-01	9.966468e-01	1.000494e+00	1.004747e+00	1.009139e+00	1.013025e+00	1.015637e+00	1.017171e+00	1.019191e+00	1.022950e+00	1.026749e+00	1.030295e+00	9.992164e-01	9.992332e-01	9.992193e-01	9.992198e-01	9.992198e-01	9.992211e-01	9.992232e-01	9.992231e-01	9.992223e-01	9.992213e-01	9.992196e-01	9.992165e-01	9.992128e-01	9.992095e-01	9.992063e-01	9.992030e-01	9.991995e-01	9.991969e-01	9.991920e-01	9.991878e-01	9.991828e-01	9.991758e-01	9.991694e-01	9.991616e-01	9.991557e-01	9.991480e-01	9.991400e-01	9.991311e-01	9.991222e-01	9.991140e-01	9.991069e-01	9.990994e-01	9.990930e-01	9.990865e-01	9.990786e-01	9.990690e-01	9.990568e-01	9.990418e-01	9.990243e-01	9.990051e-01	9.989855e-01	9.989666e-01	9.989489e-01	9.989323e-01	9.989166e-01	9.989010e-01	9.988844e-01	9.988656e-01	9.988431e-01	9.988159e-01	9.987872e-01	9.987594e-01	9.987314e-01	9.987084e-01	9.987143e-01	9.988509e-01	9.994703e-01	1.001363e+00	1.005190e+00	1.010108e+00	1.014170e+00	1.016384e+00	1.017120e+00	1.017159e+00	1.016942e+00	1.015912e+00	1.013319e+00	1.009342e+00	1.004842e+00	1.000497e+00	9.966107e-01	9.933211e-01	9.907465e-01	9.889420e-01	9.878076e-01	9.871128e-01	9.865820e-01	9.859838e-01	9.853816e-01	9.850387e-01	9.849741e-01	9.850724e-01	9.854649e-01	9.860759e-01	9.866532e-01	9.871924e-01	9.879378e-01	9.891534e-01	9.910423e-01	9.936707e-01	9.969642e-01	1.000807e+00	1.005062e+00	1.009400e+00	1.013129e+00	1.015549e+00	1.016996e+00	1.018992e+00	1.022621e+00	1.026202e+00	1.029588e+00	9.992155e-01	9.992308e-01	9.992206e-01	9.992216e-01	9.992212e-01	9.992217e-01	9.992231e-01	9.992239e-01	9.992227e-01	9.992209e-01	9.992186e-01	9.992159e-01	9.992124e-01	9.992083e-01	9.992050e-01	9.992022e-01	9.991992e-01	9.991967e-01	9.991924e-01	9.991869e-01	9.991818e-01	9.991750e-01	9.991691e-01	9.991635e-01	9.991564e-01	9.991498e-01	9.991419e-01	9.991331e-01	9.991243e-01	9.991158e-01	9.991075e-01	9.990998e-01	9.990924e-01	9.990850e-01	9.990764e-01	9.990664e-01	9.990540e-01	9.990390e-01	9.990217e-01	9.990030e-01	9.989840e-01	9.989654e-01	9.989477e-01	9.989312e-01	9.989155e-01	9.988999e-01	9.988833e-01	9.988642e-01	9.988412e-01	9.988140e-01	9.987852e-01	9.987573e-01	9.987292e-01	9.987061e-01	9.987185e-01	9.988759e-01	9.995280e-01	1.001413e+00	1.005108e+00	1.009827e+00	1.013785e+00	1.016012e+00	1.016794e+00	1.016858e+00	1.016678e+00	1.015795e+00	1.013436e+00	1.009645e+00	1.005223e+00	1.000888e+00	9.969978e-01	9.937008e-01	9.910926e-01	9.892196e-01	9.880001e-01	9.872264e-01	9.866389e-01	9.859986e-01	9.852804e-01	9.847573e-01	9.846134e-01	9.848169e-01	9.853864e-01	9.860984e-01	9.867180e-01	9.873168e-01	9.881413e-01	9.894380e-01	9.913874e-01	9.940414e-01	9.973378e-01	1.001183e+00	1.005423e+00	1.009677e+00	1.013222e+00	1.015440e+00	1.016802e+00	1.018776e+00	1.022242e+00	1.025572e+00	1.028763e+00	9.992142e-01	9.992277e-01	9.992201e-01	9.992218e-01	9.992209e-01	9.992209e-01	9.992216e-01	9.992227e-01	9.992220e-01	9.992197e-01	9.992166e-01	9.992133e-01	9.992095e-01	9.992061e-01	9.992028e-01	9.992002e-01	9.991974e-01	9.991946e-01	9.991907e-01	9.991846e-01	9.991784e-01	9.991724e-01	9.991677e-01	9.991608e-01	9.991555e-01	9.991494e-01	9.991420e-01	9.991337e-01	9.991251e-01	9.991163e-01	9.991074e-01	9.990991e-01	9.990910e-01	9.990830e-01	9.990736e-01	9.990630e-01	9.990501e-01	9.990349e-01	9.990177e-01	9.989994e-01	9.989807e-01	9.989624e-01	9.989449e-01	9.989284e-01	9.989126e-01	9.988969e-01	9.988802e-01	9.988609e-01	9.988375e-01	9.988101e-01	9.987815e-01	9.987537e-01	9.987257e-01	9.987032e-01	9.987232e-01	9.989047e-01	9.995945e-01	1.001470e+00	1.005020e+00	1.009520e+00	1.013357e+00	1.015589e+00	1.016421e+00	1.016515e+00	1.016370e+00	1.015635e+00	1.013521e+00	1.009945e+00	1.005629e+00	1.001320e+00	9.974281e-01	9.941194e-01	9.914738e-01	9.895251e-01	9.882075e-01	9.873379e-01	9.866771e-01	9.859863e-01	9.851625e-01	9.844494e-01	9.842093e-01	9.845375e-01	9.852900e-01	9.860960e-01	9.867677e-01	9.874436e-01	9.883625e-01	9.897502e-01	9.917646e-01	9.944470e-01	9.977518e-01	1.001597e+00	1.005807e+00	1.009948e+00	1.013279e+00	1.015295e+00	1.016577e+00	1.018528e+00	1.021814e+00	1.024874e+00	1.027849e+00	9.992125e-01	9.992240e-01	9.992175e-01	9.992199e-01	9.992190e-01	9.992186e-01	9.992189e-01	9.992197e-01	9.992199e-01	9.992175e-01	9.992142e-01	9.992103e-01	9.992066e-01	9.992032e-01	9.992005e-01	9.991981e-01	9.991953e-01	9.991920e-01	9.991868e-01	9.991804e-01	9.991737e-01	9.991676e-01	9.991627e-01	9.991577e-01	9.991525e-01	9.991469e-01	9.991398e-01	9.991319e-01	9.991235e-01	9.991144e-01	9.991057e-01	9.990973e-01	9.990889e-01	9.990804e-01	9.990703e-01	9.990589e-01	9.990453e-01	9.990297e-01	9.990125e-01	9.989944e-01	9.989761e-01	9.989580e-01	9.989406e-01	9.989239e-01	9.989079e-01	9.988920e-01	9.988751e-01	9.988556e-01	9.988318e-01	9.988043e-01	9.987759e-01	9.987485e-01	9.987208e-01	9.987005e-01	9.987294e-01	9.989375e-01	9.996686e-01	1.001533e+00	1.004927e+00	1.009194e+00	1.012895e+00	1.015126e+00	1.016005e+00	1.016135e+00	1.016015e+00	1.015418e+00	1.013560e+00	1.010225e+00	1.006045e+00	1.001784e+00	9.978992e-01	9.945807e-01	9.918962e-01	9.898654e-01	9.884367e-01	9.874548e-01	9.866961e-01	9.859372e-01	9.850196e-01	9.841263e-01	9.837869e-01	9.842465e-01	9.851691e-01	9.860593e-01	9.868045e-01	9.875806e-01	9.886076e-01	9.900960e-01	9.921789e-01	9.948911e-01	9.982037e-01	1.002042e+00	1.006200e+00	1.010194e+00	1.013286e+00	1.015096e+00	1.016319e+00	1.018247e+00	1.021343e+00	1.024123e+00	1.026869e+00	9.992099e-01	9.992204e-01	9.992135e-01	9.992167e-01	9.992158e-01	9.992153e-01	9.992152e-01	9.992158e-01	9.992157e-01	9.992144e-01	9.992107e-01	9.992070e-01	9.992026e-01	9.992003e-01	9.991983e-01	9.991960e-01	9.991931e-01	9.991892e-01	9.991834e-01	9.991766e-01	9.991695e-01	9.991637e-01	9.991589e-01	9.991541e-01	9.991490e-01	9.991433e-01	9.991361e-01	9.991281e-01	9.991193e-01	9.991112e-01	9.991026e-01	9.990947e-01	9.990863e-01	9.990770e-01	9.990663e-01	9.990540e-01	9.990398e-01	9.990239e-01	9.990069e-01	9.989891e-01	9.989712e-01	9.989534e-01	9.989360e-01	9.989191e-01	9.989028e-01	9.988865e-01	9.988692e-01	9.988492e-01	9.988249e-01	9.987970e-01	9.987689e-01	9.987423e-01	9.987153e-01	9.986975e-01	9.987369e-01	9.989747e-01	9.997499e-01	1.001601e+00	1.004834e+00	1.008856e+00	1.012407e+00	1.014628e+00	1.015555e+00	1.015724e+00	1.015626e+00	1.015150e+00	1.013549e+00	1.010480e+00	1.006463e+00	1.002274e+00	9.984151e-01	9.950928e-01	9.923671e-01	9.902473e-01	9.886967e-01	9.875876e-01	9.867119e-01	9.858537e-01	9.848545e-01	9.838226e-01	9.833937e-01	9.839712e-01	9.850239e-01	9.859944e-01	9.868438e-01	9.877375e-01	9.888855e-01	9.904828e-01	9.926391e-01	9.953825e-01	9.986975e-01	1.002513e+00	1.006593e+00	1.010410e+00	1.013244e+00	1.014854e+00	1.016034e+00	1.017938e+00	1.020837e+00	1.023332e+00	1.025839e+00	9.992075e-01	9.992177e-01	9.992096e-01	9.992132e-01	9.992122e-01	9.992116e-01	9.992111e-01	9.992115e-01	9.992113e-01	9.992099e-01	9.992070e-01	9.992034e-01	9.992003e-01	9.991971e-01	9.991959e-01	9.991939e-01	9.991903e-01	9.991857e-01	9.991791e-01	9.991717e-01	9.991642e-01	9.991590e-01	9.991548e-01	9.991505e-01	9.991454e-01	9.991397e-01	9.991320e-01	9.991240e-01	9.991156e-01	9.991073e-01	9.990996e-01	9.990915e-01	9.990826e-01	9.990730e-01	9.990614e-01	9.990483e-01	9.990335e-01	9.990176e-01	9.990009e-01	9.989838e-01	9.989665e-01	9.989491e-01	9.989318e-01	9.989148e-01	9.988982e-01	9.988814e-01	9.988636e-01	9.988429e-01	9.988177e-01	9.987892e-01	9.987614e-01	9.987354e-01	9.987090e-01	9.986934e-01	9.987454e-01	9.990166e-01	9.998370e-01	1.001674e+00	1.004742e+00	1.008512e+00	1.011897e+00	1.014097e+00	1.015075e+00	1.015287e+00	1.015210e+00	1.014840e+00	1.013488e+00	1.010702e+00	1.006876e+00	1.002788e+00	9.989752e-01	9.956577e-01	9.928891e-01	9.906744e-01	9.889930e-01	9.877426e-01	9.867318e-01	9.857498e-01	9.846690e-01	9.835683e-01	9.830913e-01	9.837327e-01	9.848552e-01	9.859164e-01	9.868921e-01	9.879189e-01	9.892013e-01	9.909162e-01	9.931510e-01	9.959252e-01	9.992324e-01	1.003003e+00	1.006977e+00	1.010589e+00	1.013155e+00	1.014578e+00	1.015730e+00	1.017606e+00	1.020301e+00	1.022510e+00	1.024770e+00	9.992056e-01	9.992163e-01	9.992061e-01	9.992098e-01	9.992084e-01	9.992076e-01	9.992067e-01	9.992069e-01	9.992066e-01	9.992052e-01	9.992027e-01	9.992004e-01	9.991981e-01	9.991958e-01	9.991925e-01	9.991907e-01	9.991874e-01	9.991814e-01	9.991743e-01	9.991662e-01	9.991586e-01	9.991540e-01	9.991507e-01	9.991468e-01	9.991421e-01	9.991354e-01	9.991280e-01	9.991197e-01	9.991123e-01	9.991048e-01	9.990963e-01	9.990881e-01	9.990788e-01	9.990684e-01	9.990560e-01	9.990420e-01	9.990268e-01	9.990109e-01	9.989947e-01	9.989783e-01	9.989617e-01	9.989448e-01	9.989277e-01	9.989107e-01	9.988938e-01	9.988766e-01	9.988582e-01	9.988368e-01	9.988104e-01	9.987815e-01	9.987538e-01	9.987277e-01	9.987012e-01	9.986892e-01	9.987553e-01	9.990615e-01	9.999280e-01	1.001750e+00	1.004656e+00	1.008169e+00	1.011371e+00	1.013537e+00	1.014564e+00	1.014824e+00	1.014770e+00	1.014490e+00	1.013377e+00	1.010882e+00	1.007278e+00	1.003320e+00	9.995725e-01	9.962689e-01	9.934602e-01	9.911481e-01	9.893269e-01	9.879192e-01	9.867526e-01	9.856326e-01	9.844621e-01	9.833775e-01	9.829200e-01	9.835384e-01	9.846628e-01	9.858282e-01	9.869448e-01	9.881245e-01	9.895567e-01	9.913979e-01	9.937141e-01	9.965155e-01	9.998019e-01	1.003505e+00	1.007344e+00	1.010721e+00	1.013010e+00	1.014268e+00	1.015406e+00	1.017251e+00	1.019737e+00	1.021666e+00	1.023674e+00	9.992052e-01	9.992164e-01	9.992032e-01	9.992068e-01	9.992047e-01	9.992037e-01	9.992026e-01	9.992023e-01	9.992022e-01	9.992009e-01	9.991989e-01	9.991973e-01	9.991958e-01	9.991939e-01	9.991907e-01	9.991860e-01	9.991821e-01	9.991765e-01	9.991682