# vtk DataFile Version 3.0
vtk output
ASCII
DATASET STRUCTURED_GRID
DIMENSIONS 101 101 1
POINTS 10201 double
0.000000e+00	0.000000e+00	0.0	1.000000e-02	0.000000e+00	0.0	2.000000e-02	0.000000e+00	0.0	3.000000e-02	0.000000e+00	0.0	4.000000e-02	0.000000e+00	0.0	5.000000e-02	0.000000e+00	0.0	6.000000e-02	0.000000e+00	0.0	7.000000e-02	0.000000e+00	0.0	8.000000e-02	0.000000e+00	0.0	9.000000e-02	0.000000e+00	0.0	1.000000e-01	0.000000e+00	0.0	1.100000e-01	0.000000e+00	0.0	1.200000e-01	0.000000e+00	0.0	1.300000e-01	0.000000e+00	0.0	1.400000e-01	0.000000e+00	0.0	1.500000e-01	0.000000e+00	0.0	1.600000e-01	0.000000e+00	0.0	1.700000e-01	0.000000e+00	0.0	1.800000e-01	0.000000e+00	0.0	1.900000e-01	0.000000e+00	0.0	2.000000e-01	0.000000e+00	0.0	2.100000e-01	0.000000e+00	0.0	2.200000e-01	0.000000e+00	0.0	2.300000e-01	0.000000e+00	0.0	2.400000e-01	0.000000e+00	0.0	2.500000e-01	0.000000e+00	0.0	2.600000e-01	0.000000e+00	0.0	2.700000e-01	0.000000e+00	0.0	2.800000e-01	0.000000e+00	0.0	2.900000e-01	0.000000e+00	0.0	3.000000e-01	0.000000e+00	0.0	3.100000e-01	0.000000e+00	0.0	3.200000e-01	0.000000e+00	0.0	3.300000e-01	0.000000e+00	0.0	3.400000e-01	0.000000e+00	0.0	3.500000e-01	0.000000e+00	0.0	3.600000e-01	0.000000e+00	0.0	3.700000e-01	0.000000e+00	0.0	3.800000e-01	0.000000e+00	0.0	3.900000e-01	0.000000e+00	0.0	4.000000e-01	0.000000e+00	0.0	4.100000e-01	0.000000e+00	0.0	4.200000e-01	0.000000e+00	0.0	4.300000e-01	0.000000e+00	0.0	4.400000e-01	0.000000e+00	0.0	4.500000e-01	0.000000e+00	0.0	4.600000e-01	0.000000e+00	0.0	4.700000e-01	0.000000e+00	0.0	4.800000e-01	0.000000e+00	0.0	4.900000e-01	0.000000e+00	0.0	5.000000e-01	0.000000e+00	0.0	5.100000e-01	0.000000e+00	0.0	5.200000e-01	0.000000e+00	0.0	5.300000e-01	0.000000e+00	0.0	5.400000e-01	0.000000e+00	0.0	5.500000e-01	0.000000e+00	0.0	5.600000e-01	0.000000e+00	0.0	5.700000e-01	0.000000e+00	0.0	5.800000e-01	0.000000e+00	0.0	5.900000e-01	0.000000e+00	0.0	6.000000e-01	0.000000e+00	0.0	6.100000e-01	0.000000e+00	0.0	6.200000e-01	0.000000e+00	0.0	6.300000e-01	0.000000e+00	0.0	6.400000e-01	0.000000e+00	0.0	6.500000e-01	0.000000e+00	0.0	6.600000e-01	0.000000e+00	0.0	6.700000e-01	0.000000e+00	0.0	6.800000e-01	0.000000e+00	0.0	6.900000e-01	0.000000e+00	0.0	7.000000e-01	0.000000e+00	0.0	7.100000e-01	0.000000e+00	0.0	7.200000e-01	0.000000e+00	0.0	7.300000e-01	0.000000e+00	0.0	7.400000e-01	0.000000e+00	0.0	7.500000e-01	0.000000e+00	0.0	7.600000e-01	0.000000e+00	0.0	7.700000e-01	0.000000e+00	0.0	7.800000e-01	0.000000e+00	0.0	7.900000e-01	0.000000e+00	0.0	8.000000e-01	0.000000e+00	0.0	8.100000e-01	0.000000e+00	0.0	8.200000e-01	0.000000e+00	0.0	8.300000e-01	0.000000e+00	0.0	8.400000e-01	0.000000e+00	0.0	8.500000e-01	0.000000e+00	0.0	8.600000e-01	0.000000e+00	0.0	8.700000e-01	0.000000e+00	0.0	8.800000e-01	0.000000e+00	0.0	8.900000e-01	0.000000e+00	0.0	9.000000e-01	0.000000e+00	0.0	9.100000e-01	0.000000e+00	0.0	9.200000e-01	0.000000e+00	0.0	9.300000e-01	0.000000e+00	0.0	9.400000e-01	0.000000e+00	0.0	9.500000e-01	0.000000e+00	0.0	9.600000e-01	0.000000e+00	0.0	9.700000e-01	0.000000e+00	0.0	9.800000e-01	0.000000e+00	0.0	9.900000e-01	0.000000e+00	0.0	1.000000e+00	0.000000e+00	0.0	0.000000e+00	1.000000e-02	0.0	1.000000e-02	1.000000e-02	0.0	2.000000e-02	1.000000e-02	0.0	3.000000e-02	1.000000e-02	0.0	4.000000e-02	1.000000e-02	0.0	5.000000e-02	1.000000e-02	0.0	6.000000e-02	1.000000e-02	0.0	7.000000e-02	1.000000e-02	0.0	8.000000e-02	1.000000e-02	0.0	9.000000e-02	1.000000e-02	0.0	1.000000e-01	1.000000e-02	0.0	1.100000e-01	1.000000e-02	0.0	1.200000e-01	1.000000e-02	0.0	1.300000e-01	1.000000e-02	0.0	1.400000e-01	1.000000e-02	0.0	1.500000e-01	1.000000e-02	0.0	1.600000e-01	1.000000e-02	0.0	1.700000e-01	1.000000e-02	0.0	1.800000e-01	1.000000e-02	0.0	1.900000e-01	1.000000e-02	0.0	2.000000e-01	1.000000e-02	0.0	2.100000e-01	1.000000e-02	0.0	2.200000e-01	1.000000e-02	0.0	2.300000e-01	1.000000e-02	0.0	2.400000e-01	1.000000e-02	0.0	2.500000e-01	1.000000e-02	0.0	2.600000e-01	1.000000e-02	0.0	2.700000e-01	1.000000e-02	0.0	2.800000e-01	1.000000e-02	0.0	2.900000e-01	1.000000e-02	0.0	3.000000e-01	1.000000e-02	0.0	3.100000e-01	1.000000e-02	0.0	3.200000e-01	1.000000e-02	0.0	3.300000e-01	1.000000e-02	0.0	3.400000e-01	1.000000e-02	0.0	3.500000e-01	1.000000e-02	0.0	3.600000e-01	1.000000e-02	0.0	3.700000e-01	1.000000e-02	0.0	3.800000e-01	1.000000e-02	0.0	3.900000e-01	1.000000e-02	0.0	4.000000e-01	1.000000e-02	0.0	4.100000e-01	1.000000e-02	0.0	4.200000e-01	1.000000e-02	0.0	4.300000e-01	1.000000e-02	0.0	4.400000e-01	1.000000e-02	0.0	4.500000e-01	1.000000e-02	0.0	4.600000e-01	1.000000e-02	0.0	4.700000e-01	1.000000e-02	0.0	4.800000e-01	1.000000e-02	0.0	4.900000e-01	1.000000e-02	0.0	5.000000e-01	1.000000e-02	0.0	5.100000e-01	1.000000e-02	0.0	5.200000e-01	1.000000e-02	0.0	5.300000e-01	1.000000e-02	0.0	5.400000e-01	1.000000e-02	0.0	5.500000e-01	1.000000e-02	0.0	5.600000e-01	1.000000e-02	0.0	5.700000e-01	1.000000e-02	0.0	5.800000e-01	1.000000e-02	0.0	5.900000e-01	1.000000e-02	0.0	6.000000e-01	1.000000e-02	0.0	6.100000e-01	1.000000e-02	0.0	6.200000e-01	1.000000e-02	0.0	6.300000e-01	1.000000e-02	0.0	6.400000e-01	1.000000e-02	0.0	6.500000e-01	1.000000e-02	0.0	6.600000e-01	1.000000e-02	0.0	6.700000e-01	1.000000e-02	0.0	6.800000e-01	1.000000e-02	0.0	6.900000e-01	1.000000e-02	0.0	7.000000e-01	1.000000e-02	0.0	7.100000e-01	1.000000e-02	0.0	7.200000e-01	1.000000e-02	0.0	7.300000e-01	1.000000e-02	0.0	7.400000e-01	1.000000e-02	0.0	7.500000e-01	1.000000e-02	0.0	7.600000e-01	1.000000e-02	0.0	7.700000e-01	1.000000e-02	0.0	7.800000e-01	1.000000e-02	0.0	7.900000e-01	1.000000e-02	0.0	8.000000e-01	1.000000e-02	0.0	8.100000e-01	1.000000e-02	0.0	8.200000e-01	1.000000e-02	0.0	8.300000e-01	1.000000e-02	0.0	8.400000e-01	1.000000e-02	0.0	8.500000e-01	1.000000e-02	0.0	8.600000e-01	1.000000e-02	0.0	8.700000e-01	1.000000e-02	0.0	8.800000e-01	1.000000e-02	0.0	8.900000e-01	1.000000e-02	0.0	9.000000e-01	1.000000e-02	0.0	9.100000e-01	1.000000e-02	0.0	9.200000e-01	1.000000e-02	0.0	9.300000e-01	1.000000e-02	0.0	9.400000e-01	1.000000e-02	0.0	9.500000e-01	1.000000e-02	0.0	9.600000e-01	1.000000e-02	0.0	9.700000e-01	1.000000e-02	0.0	9.800000e-01	1.000000e-02	0.0	9.900000e-01	1.000000e-02	0.0	1.000000e+00	1.000000e-02	0.0	0.000000e+00	2.000000e-02	0.0	1.000000e-02	2.000000e-02	0.0	2.000000e-02	2.000000e-02	0.0	3.000000e-02	2.000000e-02	0.0	4.000000e-02	2.000000e-02	0.0	5.000000e-02	2.000000e-02	0.0	6.000000e-02	2.000000e-02	0.0	7.000000e-02	2.000000e-02	0.0	8.000000e-02	2.000000e-02	0.0	9.000000e-02	2.000000e-02	0.0	1.000000e-01	2.000000e-02	0.0	1.100000e-01	2.000000e-02	0.0	1.200000e-01	2.000000e-02	0.0	1.300000e-01	2.000000e-02	0.0	1.400000e-01	2.000000e-02	0.0	1.500000e-01	2.000000e-02	0.0	1.600000e-01	2.000000e-02	0.0	1.700000e-01	2.000000e-02	0.0	1.800000e-01	2.000000e-02	0.0	1.900000e-01	2.000000e-02	0.0	2.000000e-01	2.000000e-02	0.0	2.100000e-01	2.000000e-02	0.0	2.200000e-01	2.000000e-02	0.0	2.300000e-01	2.000000e-02	0.0	2.400000e-01	2.000000e-02	0.0	2.500000e-01	2.000000e-02	0.0	2.600000e-01	2.000000e-02	0.0	2.700000e-01	2.000000e-02	0.0	2.800000e-01	2.000000e-02	0.0	2.900000e-01	2.000000e-02	0.0	3.000000e-01	2.000000e-02	0.0	3.100000e-01	2.000000e-02	0.0	3.200000e-01	2.000000e-02	0.0	3.300000e-01	2.000000e-02	0.0	3.400000e-01	2.000000e-02	0.0	3.500000e-01	2.000000e-02	0.0	3.600000e-01	2.000000e-02	0.0	3.700000e-01	2.000000e-02	0.0	3.800000e-01	2.000000e-02	0.0	3.900000e-01	2.000000e-02	0.0	4.000000e-01	2.000000e-02	0.0	4.100000e-01	2.000000e-02	0.0	4.200000e-01	2.000000e-02	0.0	4.300000e-01	2.000000e-02	0.0	4.400000e-01	2.000000e-02	0.0	4.500000e-01	2.000000e-02	0.0	4.600000e-01	2.000000e-02	0.0	4.700000e-01	2.000000e-02	0.0	4.800000e-01	2.000000e-02	0.0	4.900000e-01	2.000000e-02	0.0	5.000000e-01	2.000000e-02	0.0	5.100000e-01	2.000000e-02	0.0	5.200000e-01	2.000000e-02	0.0	5.300000e-01	2.000000e-02	0.0	5.400000e-01	2.000000e-02	0.0	5.500000e-01	2.000000e-02	0.0	5.600000e-01	2.000000e-02	0.0	5.700000e-01	2.000000e-02	0.0	5.800000e-01	2.000000e-02	0.0	5.900000e-01	2.000000e-02	0.0	6.000000e-01	2.000000e-02	0.0	6.100000e-01	2.000000e-02	0.0	6.200000e-01	2.000000e-02	0.0	6.300000e-01	2.000000e-02	0.0	6.400000e-01	2.000000e-02	0.0	6.500000e-01	2.000000e-02	0.0	6.600000e-01	2.000000e-02	0.0	6.700000e-01	2.000000e-02	0.0	6.800000e-01	2.000000e-02	0.0	6.900000e-01	2.000000e-02	0.0	7.000000e-01	2.000000e-02	0.0	7.100000e-01	2.000000e-02	0.0	7.200000e-01	2.000000e-02	0.0	7.300000e-01	2.000000e-02	0.0	7.400000e-01	2.000000e-02	0.0	7.500000e-01	2.000000e-02	0.0	7.600000e-01	2.000000e-02	0.0	7.700000e-01	2.000000e-02	0.0	7.800000e-01	2.000000e-02	0.0	7.900000e-01	2.000000e-02	0.0	8.000000e-01	2.000000e-02	0.0	8.100000e-01	2.000000e-02	0.0	8.200000e-01	2.000000e-02	0.0	8.300000e-01	2.000000e-02	0.0	8.400000e-01	2.000000e-02	0.0	8.500000e-01	2.000000e-02	0.0	8.600000e-01	2.000000e-02	0.0	8.700000e-01	2.000000e-02	0.0	8.800000e-01	2.000000e-02	0.0	8.900000e-01	2.000000e-02	0.0	9.000000e-01	2.000000e-02	0.0	9.100000e-01	2.000000e-02	0.0	9.200000e-01	2.000000e-02	0.0	9.300000e-01	2.000000e-02	0.0	9.400000e-01	2.000000e-02	0.0	9.500000e-01	2.000000e-02	0.0	9.600000e-01	2.000000e-02	0.0	9.700000e-01	2.000000e-02	0.0	9.800000e-01	2.000000e-02	0.0	9.900000e-01	2.000000e-02	0.0	1.000000e+00	2.000000e-02	0.0	0.000000e+00	3.000000e-02	0.0	1.000000e-02	3.000000e-02	0.0	2.000000e-02	3.000000e-02	0.0	3.000000e-02	3.000000e-02	0.0	4.000000e-02	3.000000e-02	0.0	5.000000e-02	3.000000e-02	0.0	6.000000e-02	3.000000e-02	0.0	7.000000e-02	3.000000e-02	0.0	8.000000e-02	3.000000e-02	0.0	9.000000e-02	3.000000e-02	0.0	1.000000e-01	3.000000e-02	0.0	1.100000e-01	3.000000e-02	0.0	1.200000e-01	3.000000e-02	0.0	1.300000e-01	3.000000e-02	0.0	1.400000e-01	3.000000e-02	0.0	1.500000e-01	3.000000e-02	0.0	1.600000e-01	3.000000e-02	0.0	1.700000e-01	3.000000e-02	0.0	1.800000e-01	3.000000e-02	0.0	1.900000e-01	3.000000e-02	0.0	2.000000e-01	3.000000e-02	0.0	2.100000e-01	3.000000e-02	0.0	2.200000e-01	3.000000e-02	0.0	2.300000e-01	3.000000e-02	0.0	2.400000e-01	3.000000e-02	0.0	2.500000e-01	3.000000e-02	0.0	2.600000e-01	3.000000
[...]
POINT_DATA 10201

SCALARS Height double 1
LOOKUP_TABLE default
9.992562e-01	9.992767e-01	9.992674e-01	9.992630e-01	9.992588e-01	9.992568e-01	9.992567e-01	9.992561e-01	9.992567e-01	9.992596e-01	9.992616e-01	9.992613e-01	9.992584e-01	9.992537e-01	9.992489e-01	9.992459e-01	9.992463e-01	9.992497e-01	9.992521e-01	9.992529e-01	9.992510e-01	9.992421e-01	9.992283e-01	9.992138e-01	9.992023e-01	9.991925e-01	9.991872e-01	9.991837e-01	9.991800e-01	9.991750e-01	9.991681e-01	9.991598e-01	9.991509e-01	9.991424e-01	9.991338e-01	9.991260e-01	9.991181e-01	9.991096e-01	9.990984e-01	9.990846e-01	9.990677e-01	9.990489e-01	9.990295e-01	9.990108e-01	9.989935e-01	9.989767e-01	9.989592e-01	9.989403e-01	9.989235e-01	9.989113e-01	9.989052e-01	9.989369e-01	9.990953e-01	9.995589e-01	1.000765e+00	1.003427e+00	1.007859e+00	1.013002e+00	1.016767e+00	1.018385e+00	1.018619e+00	1.018238e+00	1.016959e+00	1.014507e+00	1.010886e+00	1.006553e+00	1.002046e+00	9.978256e-01	9.941852e-01	9.913343e-01	9.894024e-01	9.883493e-01	9.879378e-01	9.878262e-01	9.878870e-01	9.882043e-01	9.888705e-01	9.897820e-01	9.906655e-01	9.912641e-01	9.914403e-01	9.911683e-01	9.904994e-01	9.895970e-01	9.887282e-01	9.881345e-01	9.878644e-01	9.878040e-01	9.878810e-01	9.882867e-01	9.893823e-01	9.914056e-01	9.944311e-01	9.984889e-01	1.003793e+00	1.010768e+00	1.019387e+00	1.028157e+00	1.034663e+00	1.037650e+00	1.038647e+00	9.992751e-01	9.992947e-01	9.992706e-01	9.992659e-01	9.992619e-01	9.992603e-01	9.992598e-01	9.992607e-01	9.992623e-01	9.992637e-01	9.992632e-01	9.992607e-01	9.992563e-01	9.992511e-01	9.992471e-01	9.992440e-01	9.992393e-01	9.992437e-01	9.992404e-01	9.992372e-01	9.992331e-01	9.992250e-01	9.992165e-01	9.992042e-01	9.991907e-01	9.991841e-01	9.991779e-01	9.991735e-01	9.991695e-01	9.991644e-01	9.991580e-01	9.991512e-01	9.991448e-01	9.991392e-01	9.991341e-01	9.991279e-01	9.991207e-01	9.991120e-01	9.991007e-01	9.990866e-01	9.990694e-01	9.990502e-01	9.990306e-01	9.990119e-01	9.989946e-01	9.989777e-01	9.989594e-01	9.989398e-01	9.989222e-01	9.989080e-01	9.988950e-01	9.988937e-01	9.989507e-01	9.992672e-01	1.000403e+00	1.003272e+00	1.008132e+00	1.013336e+00	1.016912e+00	1.018404e+00	1.018634e+00	1.018412e+00	1.017203e+00	1.014598e+00	1.010841e+00	1.006419e+00	1.001896e+00	9.976744e-01	9.940321e-01	9.912085e-01	9.893321e-01	9.883372e-01	9.879461e-01	9.878116e-01	9.878058e-01	9.881296e-01	9.888371e-01	9.897725e-01	9.906644e-01	9.912653e-01	9.914420e-01	9.911688e-01	9.904972e-01	9.895853e-01	9.886902e-01	9.880572e-01	9.877920e-01	9.877977e-01	9.878898e-01	9.882655e-01	9.892907e-01	9.912348e-01	9.941837e-01	9.981467e-01	1.003375e+00	1.010506e+00	1.019552e+00	1.028583e+00	1.035101e+00	1.037795e+00	1.038701e+00	9.992834e-01	9.993050e-01	9.992821e-01	9.992772e-01	9.992731e-01	9.992702e-01	9.992687e-01	9.992670e-01	9.992653e-01	9.992655e-01	9.992652e-01	9.992638e-01	9.992612e-01	9.992580e-01	9.992542e-01	9.992495e-01	9.992464e-01	9.992467e-01	9.992456e-01	9.992449e-01	9.992418e-01	9.992328e-01	9.992222e-01	9.992114e-01	9.992032e-01	9.991967e-01	9.991944e-01	9.991909e-01	9.991860e-01	9.991790e-01	9.991703e-01	9.991611e-01	9.991521e-01	9.991438e-01	9.991362e-01	9.991302e-01	9.991240e-01	9.991163e-01	9.991060e-01	9.990928e-01	9.990766e-01	9.990586e-01	9.990400e-01	9.990219e-01	9.990046e-01	9.989880e-01	9.989692e-01	9.989494e-01	9.989320e-01	9.989161e-01	9.989021e-01	9.988992e-01	9.989581e-01	9.992808e-01	1.000461e+00	1.003464e+00	1.008371e+00	1.013449e+00	1.016837e+00	1.018259e+00	1.018505e+00	1.018352e+00	1.017270e+00	1.014592e+00	1.010779e+00	1.006448e+00	1.002023e+00	9.978480e-01	9.942401e-01	9.914383e-01	9.895522e-01	9.885125e-01	9.880747e-01	9.879104e-01	9.878569e-01	9.881480e-01	9.888649e-01	9.897952e-01	9.906610e-01	9.912429e-01	9.914148e-01	9.911491e-01	9.904992e-01	9.896121e-01	9.887160e-01	9.880763e-01	9.878508e-01	9.878949e-01	9.880186e-01	9.884455e-01	9.895097e-01	9.914502e-01	9.943624e-01	9.982916e-01	1.003521e+00	1.010678e+00	1.019729e+00	1.028729e+00	1.035108e+00	1.037567e+00	1.038417e+00	9.992832e-01	9.993035e-01	9.992825e-01	9.992772e-01	9.992730e-01	9.992702e-01	9.992687e-01	9.992677e-01	9.992662e-01	9.992651e-01	9.992638e-01	9.992620e-01	9.992594e-01	9.992566e-01	9.992540e-01	9.992514e-01	9.992476e-01	9.992493e-01	9.992480e-01	9.992471e-01	9.992437e-01	9.992342e-01	9.992239e-01	9.992129e-01	9.992042e-01	9.991984e-01	9.991938e-01	9.991883e-01	9.991818e-01	9.991742e-01	9.991658e-01	9.991572e-01	9.991492e-01	9.991420e-01	9.991357e-01	9.991298e-01	9.991236e-01	9.991160e-01	9.991061e-01	9.990931e-01	9.990772e-01	9.990595e-01	9.990413e-01	9.990234e-01	9.990060e-01	9.989892e-01	9.989699e-01	9.989495e-01	9.989317e-01	9.989157e-01	9.989005e-01	9.988945e-01	9.989422e-01	9.992411e-01	1.000408e+00	1.003450e+00	1.008407e+00	1.013433e+00	1.016728e+00	1.018108e+00	1.018364e+00	1.018233e+00	1.017307e+00	1.014701e+00	1.010803e+00	1.006457e+00	1.002076e+00	9.979337e-01	9.943346e-01	9.915276e-01	9.896296e-01	9.885745e-01	9.881211e-01	9.879501e-01	9.878718e-01	9.881064e-01	9.888137e-01	9.897543e-01	9.906066e-01	9.911693e-01	9.913354e-01	9.910784e-01	9.904487e-01	9.895709e-01	9.886628e-01	9.880409e-01	9.878725e-01	9.879358e-01	9.880656e-01	9.885080e-01	9.895851e-01	9.915297e-01	9.944318e-01	9.983388e-01	1.003527e+00	1.010669e+00	1.019785e+00	1.028839e+00	1.035016e+00	1.037292e+00	1.038102e+00	9.992797e-01	9.992988e-01	9.992802e-01	9.992761e-01	9.992720e-01	9.992695e-01	9.992676e-01	9.992655e-01	9.992644e-01	9.992627e-01	9.992605e-01	9.992578e-01	9.992549e-01	9.992523e-01	9.992500e-01	9.992481e-01	9.992462e-01	9.992487e-01	9.992481e-01	9.992471e-01	9.992438e-01	9.992343e-01	9.992238e-01	9.992127e-01	9.992033e-01	9.991962e-01	9.991905e-01	9.991844e-01	9.991776e-01	9.991703e-01	9.991625e-01	9.991542e-01	9.991463e-01	9.991386e-01	9.991322e-01	9.991266e-01	9.991209e-01	9.991136e-01	9.991037e-01	9.990908e-01	9.990752e-01	9.990578e-01	9.990398e-01	9.990219e-01	9.990043e-01	9.989872e-01	9.989680e-01	9.989472e-01	9.989293e-01	9.989130e-01	9.988972e-01	9.988896e-01	9.989332e-01	9.992238e-01	1.000386e+00	1.003439e+00	1.008401e+00	1.013366e+00	1.016568e+00	1.017907e+00	1.018173e+00	1.018065e+00	1.017256e+00	1.014804e+00	1.010902e+00	1.006522e+00	1.002180e+00	9.980813e-01	9.944932e-01	9.916706e-01	9.897479e-01	9.886660e-01	9.881843e-01	9.880023e-01	9.879060e-01	9.880727e-01	9.887245e-01	9.896658e-01	9.905183e-01	9.910659e-01	9.912245e-01	9.909776e-01	9.903618e-01	9.894804e-01	9.885777e-01	9.880195e-01	9.879126e-01	9.879854e-01	9.881294e-01	9.885976e-01	9.897004e-01	9.916661e-01	9.945776e-01	9.984647e-01	1.003611e+00	1.010739e+00	1.019895e+00	1.028872e+00	1.034777e+00	1.036930e+00	1.037700e+00	9.992741e-01	9.992919e-01	9.992744e-01	9.992709e-01	9.992672e-01	9.992653e-01	9.992641e-01	9.992622e-01	9.992611e-01	9.992600e-01	9.992578e-01	9.992548e-01	9.992513e-01	9.992484e-01	9.992465e-01	9.992456e-01	9.992444e-01	9.992472e-01	9.992457e-01	9.992432e-01	9.992397e-01	9.992312e-01	9.992225e-01	9.992113e-01	9.992022e-01	9.991952e-01	9.991888e-01	9.991824e-01	9.991759e-01	9.991690e-01	9.991615e-01	9.991534e-01	9.991442e-01	9.991359e-01	9.991288e-01	9.991228e-01	9.991166e-01	9.991090e-01	9.990990e-01	9.990862e-01	9.990708e-01	9.990533e-01	9.990349e-01	9.990165e-01	9.989985e-01	9.989811e-01	9.989621e-01	9.989411e-01	9.989229e-01	9.989063e-01	9.988900e-01	9.988816e-01	9.989248e-01	9.992152e-01	1.000379e+00	1.003426e+00	1.008350e+00	1.013245e+00	1.016377e+00	1.017681e+00	1.017947e+00	1.017856e+00	1.017145e+00	1.014870e+00	1.011060e+00	1.006657e+00	1.002315e+00	9.982703e-01	9.947096e-01	9.918701e-01	9.899058e-01	9.887778e-01	9.882638e-01	9.880628e-01	9.879505e-01	9.880518e-01	9.886157e-01	9.895293e-01	9.903928e-01	9.909418e-01	9.910980e-01	9.908541e-01	9.902344e-01	9.893448e-01	9.884818e-01	9.880135e-01	9.879605e-01	9.880419e-01	9.882069e-01	9.887082e-01	9.898549e-01	9.918601e-01	9.947872e-01	9.986478e-01	1.003752e+00	1.010885e+00	1.020026e+00	1.028804e+00	1.034456e+00	1.036495e+00	1.037232e+00	9.992676e-01	9.992835e-01	9.992677e-01	9.992651e-01	9.992620e-01	9.992602e-01	9.992594e-01	9.992585e-01	9.992581e-01	9.992577e-01	9.992563e-01	9.992535e-01	9.992497e-01	9.992460e-01	9.992436e-01	9.992425e-01	9.992415e-01	9.992426e-01	9.992408e-01	9.992377e-01	9.992335e-01	9.992256e-01	9.992177e-01	9.992077e-01	9.991987e-01	9.991923e-01	9.991864e-01	9.991809e-01	9.991753e-01	9.991688e-01	9.991610e-01	9.991513e-01	9.991416e-01	9.991326e-01	9.991248e-01	9.991182e-01	9.991114e-01	9.991035e-01	9.990936e-01	9.990810e-01	9.990656e-01	9.990480e-01	9.990292e-01	9.990105e-01	9.989922e-01	9.989746e-01	9.989558e-01	9.989349e-01	9.989164e-01	9.988990e-01	9.988824e-01	9.988748e-01	9.989205e-01	9.992172e-01	1.000384e+00	1.003406e+00	1.008260e+00	1.013075e+00	1.016158e+00	1.017442e+00	1.017705e+00	1.017621e+00	1.016995e+00	1.014898e+00	1.011235e+00	1.006847e+00	1.002496e+00	9.984872e-01	9.949665e-01	9.921253e-01	9.901158e-01	9.889249e-01	9.883608e-01	9.881317e-01	9.880068e-01	9.880446e-01	9.885058e-01	9.893607e-01	9.902316e-01	9.907937e-01	9.909517e-01	9.907051e-01	9.900719e-01	9.891845e-01	9.883911e-01	9.880208e-01	9.880160e-01	9.881064e-01	9.883001e-01	9.888535e-01	9.900608e-01	9.921093e-01	9.950411e-01	9.988768e-01	1.003974e+00	1.011112e+00	1.020135e+00	1.028641e+00	1.034055e+00	1.036014e+00	1.036731e+00	9.992590e-01	9.992728e-01	9.992605e-01	9.992592e-01	9.992568e-01	9.992551e-01	9.992545e-01	9.992549e-01	9.992552e-01	9.992559e-01	9.992554e-01	9.992534e-01	9.992498e-01	9.992458e-01	9.992424e-01	9.992398e-01	9.992380e-01	9.992356e-01	9.992361e-01	9.992320e-01	9.992275e-01	9.992198e-01	9.992112e-01	9.992016e-01	9.991941e-01	9.991887e-01	9.991842e-01	9.991797e-01	9.991744e-01	9.991674e-01	9.991583e-01	9.991482e-01	9.991380e-01	9.991289e-01	9.991210e-01	9.991138e-01	9.991064e-01	9.990981e-01	9.990880e-01	9.990752e-01	9.990597e-01	9.990420e-01	9.990231e-01	9.990042e-01	9.989860e-01	9.989682e-01	9.989490e-01	9.989285e-01	9.989098e-01	9.988919e-01	9.988754e-01	9.988697e-01	9.989215e-01	9.992321e-01	1.000408e+00	1.003381e+00	1.008127e+00	1.012852e+00	1.015905e+00	1.017188e+00	1.017456e+00	1.017378e+00	1.016820e+00	1.014903e+00	1.011412e+00	1.007085e+00	1.002725e+00	9.987238e-01	9.952347e-01	9.924025e-01	9.903570e-01	9.891023e-01	9.884770e-01	9.882173e-01	9.880746e-01	9.880482e-01	9.883954e-01	9.891637e-01	9.900153e-01	9.905923e-01	9.907592e-01	9.905036e-01	9.898600e-01	9.890022e-01	9.883048e-01	9.880382e-01	9.880810e-01	9.881856e-01	9.884120e-01	9.890277e-01	9.902979e-01	9.923827e-01	9.953140e-01	9.991428e-01	1.004261e+00	1.011372e+00	1.020199e+00	1.028412e+00	1.033590e+00	1.035500e+00	1.036211e+00	9.992522e-01	9.992652e-01	9.992550e-01	9.992546e-01	9.992527e-01	9.992518e-01	9.992521e-01	9.992531e-01	9.992539e-01	9.992543e-01	9.992542e-01	9.992526e-01	9.992497e-01	9.992457e-01	9.992417e-01	9.992382e-01	9.992350e-01	9.992322e-01	9.992291e-01	9.992280e-01	9.992232e-01	9.992150e-01	9.992064e-01	9.991970e-01	9.991921e-01	9.991868e-01	9.991828e-01	9.991783e-01	9.991725e-01	9.991647e-01	9.991553e-01	9.991450e-01	9.991355e-01	9.991271e-01	9.991188e-01	9.991111e-01	9.991032e-01	9.990943e-01	9.990836e-01	9.990704e-01	9.990546e-01	9.990369e-01	9.990182e-01	9.989997e-01	9.989814e-01	9.989630e-01	9.989432e-01	9.989228e-01	9.989040e-01	9.988864e-01	9.988696e-01	9.988659e-01	9.989271e-01	9.992589e-01	1.000447e+00	1.003361e+00	1.007959e+00	1.012571e+00	1.015605e+00	1.016910e+00	1.017195e+00	1.017124e+00	1.016634e+00	1.014898e+00	1.011594e+00	1.007355e+00	1.003002e+00	9.989961e-01	9.955210e-01	9.926948e-01	9.906210e-01	9.893078e-01	9.886204e-01	9.883219e-01	9.881625e-01	9.880733e-01	9.882926e-01	9.889478e-01	9.897625e-01	9.903494e-01	9.905254e-01	9.902626e-01	9.896157e-01	9.888082e-01	9.882291e-01	9.880758e-01	9.881638e-01	9.882832e-01	9.885495e-01	9.892282e-01	9.905576e-01	9.926748e-01	9.956137e-01	9.994585e-01	1.004607e+00	1.011658e+00	1.020230e+00	1.028103e+00	1.033066e+00	1.034948e+00	1.035671e+00	9.992502e-01	9.992613e-01	9.992525e-01	9.992531e-01	9.992517e-01	9.992513e-01	9.992519e-01	9.992532e-01	9.992538e-01	9.992538e-01	9.992533e-01	9.992518e-01	9.992485e-01	9.992445e-01	9.992400e-01	9.992357e-01	9.992319e-01	9.992297e-01	9.992269e-01	9.992237e-01	9.992199e-01	9.992123e-01	9.992055e-01	9.991986e-01	9.991910e-01	9.991862e-01	9.991819e-01	9.991771e-01	9.991708e-01	9.991626e-01	9.991530e-01	9.991435e-01	9.991346e-01	9.991264e-01	9.991181e-01	9.991100e-01	9.991014e-01	9.990918e-01	9.990805e-01	9.990669e-01	9.990511e-01	9.990338e-01	9.990157e-01	9.989976e-01	9.989795e-01	9.989605e-01	9.989401e-01	9.989193e-01	9.989004e-01	9.988834e-01	9.988669e-01	9.988649e-01	9.989378e-01	9.992954e-01	1.000500e+00	1.003345e+00	1.007768e+00	1.012240e+00	1.015253e+00	1.016597e+00	1.016911e+00	1.016853e+00	1.016436e+00	1.014888e+00	1.011790e+00	1.007667e+00	1.003341e+00	9.993284e-01	9.958517e-01	9.930227e-01	9.909203e-01	9.895493e-01	9.887940e-01	9.884440e-01	9.882670e-01	9.881283e-01	9.882156e-01	9.887308e-01	9.894853e-01	9.900722e-01	9.902559e-01	9.899896e-01	9.893514e-01	9.886182e-01	9.881805e-01	9.881404e-01	9.882618e-01	9.883976e-01	9.887167e-01	9.894632e-01	9.908524e-01	9.930049e-01	9.959653e-01	9.998464e-01	1.005026e+00	1.011983e+00	1.020248e+00	1.027738e+00	1.032474e+00	1.034347e+00	1.035089e+00	9.992501e-01	9.992608e-01	9.992524e-01	9.992534e-01	9.992522e-01	9.992520e-01	9.992527e-01	9.992536e-01	9.992543e-01	9.992534e-01	9.992513e-01	9.992500e-01	9.992471e-01	9.992429e-01	9.992383e-01	9.992337e-01	9.992298e-01	9.992277e-01	9.992265e-01	9.992247e-01	9.992208e-01	9.992146e-01	9.992075e-01	9.991984e-01	9.991918e-01	9.991866e-01	9.991818e-01	9.991762e-01	9.991693e-01	9.991612e-01	9.991526e-01	9.991436e-01	9.991349e-01	9.991268e-01	9.991182e-01	9.991096e-01	9.991005e-01	9.990902e-01	9.990782e-01	9.990643e-01	9.990487e-01	9.990318e-01	9.990145e-01	9.989970e-01	9.989790e-01	9.989597e-01	9.989386e-01	9.989174e-01	9.988986e-01	9.988822e-01	9.988665e-01	9.988674e-01	9.989533e-01	9.993413e-01	1.000566e+00	1.003332e+00	1.007562e+00	1.011871e+00	1.014853e+00	1.016241e+00	1.016595e+00	1.016556e+00	1.016217e+00	1.014865e+00	1.011996e+00	1.008020e+00	1.003743e+00	9.997329e-01	9.962498e-01	9.934087e-01	9.912696e-01	9.898317e-01	9.889994e-01	9.885871e-01	9.883781e-01	9.882058e-01	9.881728e-01	9.885261e-01	9.891928e-01	9.897707e-01	9.899610e-01	9.896930e-01	9.890747e-01	9.884429e-01	9.881639e-01	9.882232e-01	9.883651e-01	9.885351e-01	9.889165e-01	9.897407e-01	9.911974e-01	9.933938e-01	9.963886e-01	1.000315e+00	1.005519e+00	1.012351e+00	1.020261e+00	1.027322e+00	1.031809e+00	1.033675e+00	1.034444e+00	9.992507e-01	9.992620e-01	9.992529e-01	9.992542e-01	9.992527e-01	9.992525e-01	9.992529e-01	9.992536e-01	9.992534e-01	9.992528e-01	9.992508e-01	9.992476e-01	9.992453e-01	9.992419e-01	9.992374e-01	9.992329e-01	9.992290e-01	9.992266e-01	9.992245e-01	9.992217e-01	9.992178e-01	9.992124e-01	9.992062e-01	9.991990e-01	9.991929e-01	9.991879e-01	9.991825e-01	9.991764e-01	9.991693e-01	9.991614e-01	9.991523e-01	9.991435e-01	9.991349e-01	9.991268e-01	9.991180e-01	9.991092e-01	9.990995e-01	9.990885e-01	9.990760e-01	9.990618e-01	9.990462e-01	9.990297e-01	9.990130e-01	9.989960e-01	9.989781e-01	9.989584e-01	9.989367e-01	9.989153e-01	9.988968e-01	9.988810e-01	9.988663e-01	9.988710e-01	9.989718e-01	9.993941e-01	1.000641e+00	1.003325e+00	1.007347e+00	1.011474e+00	1.014408e+00	1.015840e+00	1.016244e+00	1.016226e+00	1.015962e+00	1.014812e+00	1.012198e+00	1.008396e+00	1.004194e+00	1.000202e+00	9.967177e-01	9.938584e-01	9.916711e-01	9.901534e-01	9.892295e-01	9.887432e-01	9.884900e-01	9.882911e-01	9.881579e-01	9.883342e-01	9.888791e-01	9.894326e-01	9.896273e-01	9.893602e-01	9.887805e-01	9.882856e-01	9.881717e-01	9.883109e-01	9.884730e-01	9.886864e-01	9.891443e-01	9.900596e-01	9.915947e-01	9.938450e-01	9.968820e-01	1.000855e+00	1.006070e+00	1.012749e+00	1.020260e+00	1.026849e+00	1.031067e+00	1.032921e+00	1.033723e+00	9.992508e-01	9.992622e-01	9.992523e-01	9.992538e-01	9.992520e-01	9.992514e-01	9.992513e-01	9.992518e-01	9.992514e-01	9.992503e-01	9.992487e-01	9.992463e-01	9.992426e-01	9.992401e-01	9.992363e-01	9.992320e-01	9.992284e-01	9.992258e-01	9.992230e-01	9.992195e-01	9.992151e-01	9.992101e-01	9.992049e-01	9.991988e-01	9.991933e-01	9.991882e-01	9.991829e-01	9.991766e-01	9.991685e-01	9.991595e-01	9.991503e-01	9.991419e-01	9.991335e-01	9.991251e-01	9.991166e-01	9.991076e-01	9.990977e-01	9.990863e-01	9.990732e-01	9.990586e-01	9.990429e-01	9.990267e-01	9.990104e-01	9.989938e-01	9.989758e-01	9.989556e-01	9.989333e-01	9.989117e-01	9.988935e-01	9.988783e-01	9.988642e-01	9.988733e-01	9.989922e-01	9.994521e-01	1.000722e+00	1.003320e+00	1.007127e+00	1.011056e+00	1.013928e+00	1.015398e+00	1.015854e+00	1.015862e+00	1.015665e+00	1.014713e+00	1.012369e+00	1.008771e+00	1.004670e+00	1.000717e+00	9.972405e-01	9.943606e-01	9.921165e-01	9.905092e-01	9.894822e-01	9.889052e-01	9.885976e-01	9.883712e-01	9.881601e-01	9.881584e-01	9.885355e-01	9.890338e-01	9.892266e-01	9.889682e-01	9.884626e-01	9.881468e-01	9.881949e-01	9.883947e-01	9.885788e-01	9.888482e-01	9.893978e-01	9.904138e-01	9.920354e-01	9.943471e-01	9.974292e-01	1.001443e+00	1.006652e+00	1.013146e+00	1.020221e+00	1.026312e+00	1.030253e+00	1.032088e+00	1.032929e+00	9.992495e-01	9.992610e-01	9.992501e-01	9.992522e-01	9.992499e-01	9.992488e-01	9.992482e-01	9.992485e-01	9.992482e-01	9.992467e-01	9.992453e-01	9.992436e-01	9.992410e-01	9.992375e-01	9.992344e-01	9.992311e-01	9.992272e-01	9.992240e-01	9.992202e-01	9.992156e-01	9.992104e-01	9.992060e-01	9.992017e-01	9.991967e-01	9.991916e-01	9.991873e-01	9.991807e-01	9.991733e-01	9.991650e-01	9.991561e-01	9.991474e-01	9.991387e-01	9.991301e-01	9.991222e-01	9.991137e-01	9.991048e-01	9.990946e-01	9.990827e-01	9.990692e-01	9.990542e-01	9.990384e-01	9.990225e-01	9.990065e-01	9.989900e-01	9.989720e-01	9.989513e-01	9.989284e-01	9.989068e-01	9.988887e-01	9.988734e-01	9.988596e-01	9.988748e-01	9.990149e-01	9.995141e-01	1.000805e+00	1.003316e+00	1.006904e+00	1.010624e+00	1.013421e+00	1.014922e+00	1.015433e+00	1.015468e+00	1.015322e+00	1.014560e+00	1.012489e+00	1.009123e+00	1.005153e+00	1.001262e+00	9.978043e-01	9.949050e-01	9.926008e-01	9.909000e-01	9.897636e-01	9.890825e-01	9.887005e-01	9.884391e-01	9.881692e-01	9.880010e-01	9.881649e-01	9.885582e-01	9.887360e-01	9.885041e-01	9.881275e-01	9.880304e-01	9.882249e-01	9.884663e-01	9.886854e-01	9.890303e-01	9.896812e-01	9.908019e-01	9.925136e-01	9.948907e-01	9.980181e-01	1.002063e+00	1.007243e+00	1.013519e+00	1.020123e+00	1.025710e+00	1.029376e+00	1.031189e+00	1.032069e+00	9.992469e-01	9.992590e-01	9.992469e-01	9.992497e-01	9.992469e-01	9.992453e-01	9.992442e-01	9.992443e-01	9.992440e-01	9.992427e-01	9.992408e-01	9.992397e-01	9.992376e-01	9.992351e-01	9.992310e-01	9.992288e-01	9.992253e-01	9.992212e-01	9.992164e-01	9.992106e-01	9.992045e-01	9.992004e-01	9.991969e-01	9.991929e-01	9.991891e-01	9.991832e-01	9.991766e-01	9.991689e-01	9.991606e-01	9.991524e-01	9.991434e-01	9.991348e-01	9.991265e-01	9.991187e-01	9.991102e-01	9.991011e-01	9.990905e-01	9.990781e-01	9.990640e-01	9.990486e-01	9.990329e-01	9.990171e-01	9.990014e-01	9.989851e-01	9.989670e-01	9.989459e-01	9.989228e-01	9.989013e-01	9.988829e-01	9.988662e-01	9.988540e-01	9.988778e-01	9.990397e-01	9.995793e-01	1.000892e+00	1.003315e+00	1.006682e+00	1.010182e+00	1.012892e+00	1.014419e+00	1.014984e+00	1.015048e+00	1.014942e+00	1.014341e+00	1.012549e+00	1.009441e+00	1.005633e+00	1.001828e+00	9.984032e-01	9.954909e-01	9.931288e-01	9.913333e-01	9.900837e-01	9.892892e-01	9.888127e-01	9.884936e-01	9.881806e-01	9.878696e-01	9.877877e-01	9.880098e-01	9.881513e-01	9.879768e-01	9.877989e-01	9.879401e-01	9.882539e-01	9.885298e-01	9.888070e-01	9.892436e-01	9.900030e-01	9.912307e-01	9.930337e-01	9.954761e-01	9.986450e-01	1.002707e+00	1.007828e+00	1.013854e+00	1.019977e+00	1.025045e+00	1.028449e+00	1.030237e+00	1.031154e+00	9.992447e-01	9.992567e-01	9.992432e-01	9.992470e-01	9.992441e-01	9.992422e-01	9.992407e-01	9.992402e-01	9.992398e-01	9.992382e-01	9.992363e-01	9.992349e-01	9.992335e-01	9.992321e-01	9.992295e-01	9.992255e-01	9.992231e-01	9.992182e-01	9.992118