# vtk DataFile Version 3.0
vtk output
ASCII
DATASET STRUCTURED_GRID
DIMENSIONS 101 101 1
POINTS 10201 double
0.000000e+00	0.000000e+00	0.0	1.000000e-02	0.000000e+00	0.0	2.000000e-02	0.000000e+00	0.0	3.000000e-02	0.000000e+00	0.0	4.000000e-02	0.000000e+00	0.0	5.000000e-02	0.000000e+00	0.0	6.000000e-02	0.000000e+00	0.0	7.000000e-02	0.000000e+00	0.0	8.000000e-02	0.000000e+00	0.0	9.000000e-02	0.000000e+00	0.0	1.000000e-01	0.000000e+00	0.0	1.100000e-01	0.000000e+00	0.0	1.200000e-01	0.000000e+00	0.0	1.300000e-01	0.000000e+00	0.0	1.400000e-01	0.000000e+00	0.0	1.500000e-01	0.000000e+00	0.0	1.600000e-01	0.000000e+00	0.0	1.700000e-01	0.000000e+00	0.0	1.800000e-01	0.000000e+00	0.0	1.900000e-01	0.000000e+00	0.0	2.000000e-01	0.000000e+00	0.0	2.100000e-01	0.000000e+00	0.0	2.200000e-01	0.000000e+00	0.0	2.300000e-01	0.000000e+00	0.0	2.400000e-01	0.000000e+00	0.0	2.500000e-01	0.000000e+00	0.0	2.600000e-01	0.000000e+00	0.0	2.700000e-01	0.000000e+00	0.0	2.800000e-01	0.000000e+00	0.0	2.900000e-01	0.000000e+00	0.0	3.000000e-01	0.000000e+00	0.0	3.100000e-01	0.000000e+00	0.0	3.200000e-01	0.000000e+00	0.0	3.300000e-01	0.000000e+00	0.0	3.400000e-01	0.000000e+00	0.0	3.500000e-01	0.000000e+00	0.0	3.600000e-01	0.000000e+00	0.0	3.700000e-01	0.000000e+00	0.0	3.800000e-01	0.000000e+00	0.0	3.900000e-01	0.000000e+00	0.0	4.000000e-01	0.000000e+00	0.0	4.100000e-01	0.000000e+00	0.0	4.200000e-01	0.000000e+00	0.0	4.300000e-01	0.000000e+00	0.0	4.400000e-01	0.000000e+00	0.0	4.500000e-01	0.000000e+00	0.0	4.600000e-01	0.000000e+00	0.0	4.700000e-01	0.000000e+00	0.0	4.800000e-01	0.000000e+00	0.0	4.900000e-01	0.000000e+00	0.0	5.000000e-01	0.000000e+00	0.0	5.100000e-01	0.000000e+00	0.0	5.200000e-01	0.000000e+00	0.0	5.300000e-01	0.000000e+00	0.0	5.400000e-01	0.000000e+00	0.0	5.500000e-01	0.000000e+00	0.0	5.600000e-01	0.000000e+00	0.0	5.700000e-01	0.000000e+00	0.0	5.800000e-01	0.000000e+00	0.0	5.900000e-01	0.000000e+00	0.0	6.000000e-01	0.000000e+00	0.0	6.100000e-01	0.000000e+00	0.0	6.200000e-01	0.000000e+00	0.0	6.300000e-01	0.000000e+00	0.0	6.400000e-01	0.000000e+00	0.0	6.500000e-01	0.000000e+00	0.0	6.600000e-01	0.000000e+00	0.0	6.700000e-01	0.000000e+00	0.0	6.800000e-01	0.000000e+00	0.0	6.900000e-01	0.000000e+00	0.0	7.000000e-01	0.000000e+00	0.0	7.100000e-01	0.000000e+00	0.0	7.200000e-01	0.000000e+00	0.0	7.300000e-01	0.000000e+00	0.0	7.400000e-01	0.000000e+00	0.0	7.500000e-01	0.000000e+00	0.0	7.600000e-01	0.000000e+00	0.0	7.700000e-01	0.000000e+00	0.0	7.800000e-01	0.000000e+00	0.0	7.900000e-01	0.000000e+00	0.0	8.000000e-01	0.000000e+00	0.0	8.100000e-01	0.000000e+00	0.0	8.200000e-01	0.000000e+00	0.0	8.300000e-01	0.000000e+00	0.0	8.400000e-01	0.000000e+00	0.0	8.500000e-01	0.000000e+00	0.0	8.600000e-01	0.000000e+00	0.0	8.700000e-01	0.000000e+00	0.0	8.800000e-01	0.000000e+00	0.0	8.900000e-01	0.000000e+00	0.0	9.000000e-01	0.000000e+00	0.0	9.100000e-01	0.000000e+00	0.0	9.200000e-01	0.000000e+00	0.0	9.300000e-01	0.000000e+00	0.0	9.400000e-01	0.000000e+00	0.0	9.500000e-01	0.000000e+00	0.0	9.600000e-01	0.000000e+00	0.0	9.700000e-01	0.000000e+00	0.0	9.800000e-01	0.000000e+00	0.0	9.900000e-01	0.000000e+00	0.0	1.000000e+00	0.000000e+00	0.0	0.000000e+00	1.000000e-02	0.0	1.000000e-02	1.000000e-02	0.0	2.000000e-02	1.000000e-02	0.0	3.000000e-02	1.000000e-02	0.0	4.000000e-02	1.000000e-02	0.0	5.000000e-02	1.000000e-02	0.0	6.000000e-02	1.000000e-02	0.0	7.000000e-02	1.000000e-02	0.0	8.000000e-02	1.000000e-02	0.0	9.000000e-02	1.000000e-02	0.0	1.000000e-01	1.000000e-02	0.0	1.100000e-01	1.000000e-02	0.0	1.200000e-01	1.000000e-02	0.0	1.300000e-01	1.000000e-02	0.0	1.400000e-01	1.000000e-02	0.0	1.500000e-01	1.000000e-02	0.0	1.600000e-01	1.000000e-02	0.0	1.700000e-01	1.000000e-02	0.0	1.800000e-01	1.000000e-02	0.0	1.900000e-01	1.000000e-02	0.0	2.000000e-01	1.000000e-02	0.0	2.100000e-01	1.000000e-02	0.0	2.200000e-01	1.000000e-02	0.0	2.300000e-01	1.000000e-02	0.0	2.400000e-01	1.000000e-02	0.0	2.500000e-01	1.000000e-02	0.0	2.600000e-01	1.000000e-02	0.0	2.700000e-01	1.000000e-02	0.0	2.800000e-01	1.000000e-02	0.0	2.900000e-01	1.000000e-02	0.0	3.000000e-01	1.000000e-02	0.0	3.100000e-01	1.000000e-02	0.0	3.200000e-01	1.000000e-02	0.0	3.300000e-01	1.000000e-02	0.0	3.400000e-01	1.000000e-02	0.0	3.500000e-01	1.000000e-02	0.0	3.600000e-01	1.000000e-02	0.0	3.700000e-01	1.000000e-02	0.0	3.800000e-01	1.000000e-02	0.0	3.900000e-01	1.000000e-02	0.0	4.000000e-01	1.000000e-02	0.0	4.100000e-01	1.000000e-02	0.0	4.200000e-01	1.000000e-02	0.0	4.300000e-01	1.000000e-02	0.0	4.400000e-01	1.000000e-02	0.0	4.500000e-01	1.000000e-02	0.0	4.600000e-01	1.000000e-02	0.0	4.700000e-01	1.000000e-02	0.0	4.800000e-01	1.000000e-02	0.0	4.900000e-01	1.000000e-02	0.0	5.000000e-01	1.000000e-02	0.0	5.100000e-01	1.000000e-02	0.0	5.200000e-01	1.000000e-02	0.0	5.300000e-01	1.000000e-02	0.0	5.400000e-01	1.000000e-02	0.0	5.500000e-01	1.000000e-02	0.0	5.600000e-01	1.000000e-02	0.0	5.700000e-01	1.000000e-02	0.0	5.800000e-01	1.000000e-02	0.0	5.900000e-01	1.000000e-02	0.0	6.000000e-01	1.000000e-02	0.0	6.100000e-01	1.000000e-02	0.0	6.200000e-01	1.000000e-02	0.0	6.300000e-01	1.000000e-02	0.0	6.400000e-01	1.000000e-02	0.0	6.500000e-01	1.000000e-02	0.0	6.600000e-01	1.000000e-02	0.0	6.700000e-01	1.000000e-02	0.0	6.800000e-01	1.000000e-02	0.0	6.900000e-01	1.000000e-02	0.0	7.000000e-01	1.000000e-02	0.0	7.100000e-01	1.000000e-02	0.0	7.200000e-01	1.000000e-02	0.0	7.300000e-01	1.000000e-02	0.0	7.400000e-01	1.000000e-02	0.0	7.500000e-01	1.000000e-02	0.0	7.600000e-01	1.000000e-02	0.0	7.700000e-01	1.000000e-02	0.0	7.800000e-01	1.000000e-02	0.0	7.900000e-01	1.000000e-02	0.0	8.000000e-01	1.000000e-02	0.0	8.100000e-01	1.000000e-02	0.0	8.200000e-01	1.000000e-02	0.0	8.300000e-01	1.000000e-02	0.0	8.400000e-01	1.000000e-02	0.0	8.500000e-01	1.000000e-02	0.0	8.600000e-01	1.000000e-02	0.0	8.700000e-01	1.000000e-02	0.0	8.800000e-01	1.000000e-02	0.0	8.900000e-01	1.000000e-02	0.0	9.000000e-01	1.000000e-02	0.0	9.100000e-01	1.000000e-02	0.0	9.200000e-01	1.000000e-02	0.0	9.300000e-01	1.000000e-02	0.0	9.400000e-01	1.000000e-02	0.0	9.500000e-01	1.000000e-02	0.0	9.600000e-01	1.000000e-02	0.0	9.700000e-01	1.000000e-02	0.0	9.800000e-01	1.000000e-02	0.0	9.900000e-01	1.000000e-02	0.0	1.000000e+00	1.000000e-02	0.0	0.000000e+00	2.000000e-02	0.0	1.000000e-02	2.000000e-02	0.0	2.000000e-02	2.000000e-02	0.0	3.000000e-02	2.000000e-02	0.0	4.000000e-02	2.000000e-02	0.0	5.000000e-02	2.000000e-02	0.0	6.000000e-02	2.000000e-02	0.0	7.000000e-02	2.000000e-02	0.0	8.000000e-02	2.000000e-02	0.0	9.000000e-02	2.000000e-02	0.0	1.000000e-01	2.000000e-02	0.0	1.100000e-01	2.000000e-02	0.0	1.200000e-01	2.000000e-02	0.0	1.300000e-01	2.000000e-02	0.0	1.400000e-01	2.000000e-02	0.0	1.500000e-01	2.000000e-02	0.0	1.600000e-01	2.000000e-02	0.0	1.700000e-01	2.000000e-02	0.0	1.800000e-01	2.000000e-02	0.0	1.900000e-01	2.000000e-02	0.0	2.000000e-01	2.000000e-02	0.0	2.100000e-01	2.000000e-02	0.0	2.200000e-01	2.000000e-02	0.0	2.300000e-01	2.000000e-02	0.0	2.400000e-01	2.000000e-02	0.0	2.500000e-01	2.000000e-02	0.0	2.600000e-01	2.000000e-02	0.0	2.700000e-01	2.000000e-02	0.0	2.800000e-01	2.000000e-02	0.0	2.900000e-01	2.000000e-02	0.0	3.000000e-01	2.000000e-02	0.0	3.100000e-01	2.000000e-02	0.0	3.200000e-01	2.000000e-02	0.0	3.300000e-01	2.000000e-02	0.0	3.400000e-01	2.000000e-02	0.0	3.500000e-01	2.000000e-02	0.0	3.600000e-01	2.000000e-02	0.0	3.700000e-01	2.000000e-02	0.0	3.800000e-01	2.000000e-02	0.0	3.900000e-01	2.000000e-02	0.0	4.000000e-01	2.000000e-02	0.0	4.100000e-01	2.000000e-02	0.0	4.200000e-01	2.000000e-02	0.0	4.300000e-01	2.000000e-02	0.0	4.400000e-01	2.000000e-02	0.0	4.500000e-01	2.000000e-02	0.0	4.600000e-01	2.000000e-02	0.0	4.700000e-01	2.000000e-02	0.0	4.800000e-01	2.000000e-02	0.0	4.900000e-01	2.000000e-02	0.0	5.000000e-01	2.000000e-02	0.0	5.100000e-01	2.000000e-02	0.0	5.200000e-01	2.000000e-02	0.0	5.300000e-01	2.000000e-02	0.0	5.400000e-01	2.000000e-02	0.0	5.500000e-01	2.000000e-02	0.0	5.600000e-01	2.000000e-02	0.0	5.700000e-01	2.000000e-02	0.0	5.800000e-01	2.000000e-02	0.0	5.900000e-01	2.000000e-02	0.0	6.000000e-01	2.000000e-02	0.0	6.100000e-01	2.000000e-02	0.0	6.200000e-01	2.000000e-02	0.0	6.300000e-01	2.000000e-02	0.0	6.400000e-01	2.000000e-02	0.0	6.500000e-01	2.000000e-02	0.0	6.600000e-01	2.000000e-02	0.0	6.700000e-01	2.000000e-02	0.0	6.800000e-01	2.000000e-02	0.0	6.900000e-01	2.000000e-02	0.0	7.000000e-01	2.000000e-02	0.0	7.100000e-01	2.000000e-02	0.0	7.200000e-01	2.000000e-02	0.0	7.300000e-01	2.000000e-02	0.0	7.400000e-01	2.000000e-02	0.0	7.500000e-01	2.000000e-02	0.0	7.600000e-01	2.000000e-02	0.0	7.700000e-01	2.000000e-02	0.0	7.800000e-01	2.000000e-02	0.0	7.900000e-01	2.000000e-02	0.0	8.000000e-01	2.000000e-02	0.0	8.100000e-01	2.000000e-02	0.0	8.200000e-01	2.000000e-02	0.0	8.300000e-01	2.000000e-02	0.0	8.400000e-01	2.000000e-02	0.0	8.500000e-01	2.000000e-02	0.0	8.600000e-01	2.000000e-02	0.0	8.700000e-01	2.000000e-02	0.0	8.800000e-01	2.000000e-02	0.0	8.900000e-01	2.000000e-02	0.0	9.000000e-01	2.000000e-02	0.0	9.100000e-01	2.000000e-02	0.0	9.200000e-01	2.000000e-02	0.0	9.300000e-01	2.000000e-02	0.0	9.400000e-01	2.000000e-02	0.0	9.500000e-01	2.000000e-02	0.0	9.600000e-01	2.000000e-02	0.0	9.700000e-01	2.000000e-02	0.0	9.800000e-01	2.000000e-02	0.0	9.900000e-01	2.000000e-02	0.0	1.000000e+00	2.000000e-02	0.0	0.000000e+00	3.000000e-02	0.0	1.000000e-02	3.000000e-02	0.0	2.000000e-02	3.000000e-02	0.0	3.000000e-02	3.000000e-02	0.0	4.000000e-02	3.000000e-02	0.0	5.000000e-02	3.000000e-02	0.0	6.000000e-02	3.000000e-02	0.0	7.000000e-02	3.000000e-02	0.0	8.000000e-02	3.000000e-02	0.0	9.000000e-02	3.000000e-02	0.0	1.000000e-01	3.000000e-02	0.0	1.100000e-01	3.000000e-02	0.0	1.200000e-01	3.000000e-02	0.0	1.300000e-01	3.000000e-02	0.0	1.400000e-01	3.000000e-02	0.0	1.500000e-01	3.000000e-02	0.0	1.600000e-01	3.000000e-02	0.0	1.700000e-01	3.000000e-02	0.0	1.800000e-01	3.000000e-02	0.0	1.900000e-01	3.000000e-02	0.0	2.000000e-01	3.000000e-02	0.0	2.100000e-01	3.000000e-02	0.0	2.200000e-01	3.000000e-02	0.0	2.300000e-01	3.000000e-02	0.0	2.400000e-01	3.000000e-02	0.0	2.500000e-01	3.000000e-02	0.0	2.600000e-01	3.000000
[...]
POINT_DATA 10201

SCALARS Height double 1
LOOKUP_TABLE default
1.139137e+00	1.134760e+00	1.120136e+00	1.095485e+00	1.066102e+00	1.039021e+00	1.019741e+00	1.006533e+00	9.965821e-01	9.886377e-01	9.822500e-01	9.772872e-01	9.737023e-01	9.713155e-01	9.698859e-01	9.690813e-01	9.686528e-01	9.684248e-01	9.682608e-01	9.681362e-01	9.680776e-01	9.681361e-01	9.682608e-01	9.684246e-01	9.686525e-01	9.690818e-01	9.698900e-01	9.713268e-01	9.737177e-01	9.772907e-01	9.822225e-01	9.885625e-01	9.963719e-01	1.005817e+00	1.017161e+00	1.030458e+00	1.044610e+00	1.056826e+00	1.064630e+00	1.068197e+00	1.068631e+00	1.066009e+00	1.056909e+00	1.039629e+00	1.020059e+00	1.007330e+00	1.002307e+00	1.000788e+00	1.000303e+00	1.000117e+00	1.000040e+00	1.000012e+00	1.000003e+00	1.000001e+00	1.000000e+00	1.000000e+00	1.000000e+00	1.000000e+00	1.000000e+00	1.000000e+00	1.000000e+00	1.000000e+00	1.000000e+00	1.000000e+00	1.000000e+00	1.000000e+00	1.000000e+00	1.000000e+00	1.000000e+00	1.000000e+00	1.000000e+00	1.000000e+00	1.000000e+00	1.000000e+00	1.000000e+00	1.000000e+00	1.000000e+00	1.000000e+00	1.000000e+00	1.000000e+00	1.000000e+00	1.000000e+00	1.000000e+00	1.000000e+00	1.000000e+00	1.000000e+00	1.000000e+00	1.000000e+00	1.000000e+00	1.000000e+00	1.000000e+00	1.000000e+00	1.000000e+00	1.000000e+00	1.000000e+00	1.000000e+00	1.000000e+00	1.000000e+00	1.000000e+00	1.000000e+00	1.000000e+00	1.134760e+00	1.130456e+00	1.116406e+00	1.092805e+00	1.066119e+00	1.041573e+00	1.023196e+00	1.010300e+00	1.000601e+00	9.927507e-01	9.863799e-01	9.814065e-01	9.777031e-01	9.750340e-01	9.732023e-01	9.720872e-01	9.713498e-01	9.708678e-01	9.705207e-01	9.702948e-01	9.702130e-01	9.702948e-01	9.705207e-01	9.708676e-01	9.713494e-01	9.720880e-01	9.732073e-01	9.750457e-01	9.777162e-01	9.814070e-01	9.863635e-01	9.927389e-01	1.000561e+00	1.009903e+00	1.020779e+00	1.032923e+00	1.045354e+00	1.056316e+00	1.063869e+00	1.067095e+00	1.066895e+00	1.063149e+00	1.052882e+00	1.037000e+00	1.019775e+00	1.007615e+00	1.002277e+00	1.000715e+00	1.000269e+00	1.000105e+00	1.000036e+00	1.000011e+00	1.000003e+00	1.000001e+00	1.000000e+00	1.000000e+00	1.000000e+00	1.000000e+00	1.000000e+00	1.000000e+00	1.000000e+00	1.000000e+00	1.000000e+00	1.000000e+00	1.000000e+00	1.000000e+00	1.000000e+00	1.000000e+00	1.000000e+00	1.000000e+00	1.000000e+00	1.000000e+00	1.000000e+00	1.000000e+00	1.000000e+00	1.000000e+00	1.000000e+00	1.000000e+00	1.000000e+00	1.000000e+00	1.000000e+00	1.000000e+00	1.000000e+00	1.000000e+00	1.000000e+00	1.000000e+00	1.000000e+00	1.000000e+00	1.000000e+00	1.000000e+00	1.000000e+00	1.000000e+00	1.000000e+00	1.000000e+00	1.000000e+00	1.000000e+00	1.000000e+00	1.000000e+00	1.000000e+00	1.000000e+00	1.000000e+00	1.120136e+00	1.116406e+00	1.103750e+00	1.083944e+00	1.063321e+00	1.043725e+00	1.026085e+00	1.012393e+00	1.002851e+00	9.958777e-01	9.904957e-01	9.862756e-01	9.829332e-01	9.802956e-01	9.782488e-01	9.767559e-01	9.757630e-01	9.750486e-01	9.745143e-01	9.741616e-01	9.740291e-01	9.741616e-01	9.745142e-01	9.750483e-01	9.757633e-01	9.767587e-01	9.782562e-01	9.803053e-01	9.829354e-01	9.862621e-01	9.904613e-01	9.958277e-01	1.002520e+00	1.010362e+00	1.018912e+00	1.027523e+00	1.036177e+00	1.045878e+00	1.055298e+00	1.060620e+00	1.060882e+00	1.056534e+00	1.046578e+00	1.036768e+00	1.027528e+00	1.015831e+00	1.005892e+00	1.001625e+00	1.000488e+00	1.000178e+00	1.000067e+00	1.000022e+00	1.000006e+00	1.000001e+00	1.000000e+00	1.000000e+00	1.000000e+00	1.000000e+00	1.000000e+00	1.000000e+00	1.000000e+00	1.000000e+00	1.000000e+00	1.000000e+00	1.000000e+00	1.000000e+00	1.000000e+00	1.000000e+00	1.000000e+00	1.000000e+00	1.000000e+00	1.000000e+00	1.000000e+00	1.000000e+00	1.000000e+00	1.000000e+00	1.000000e+00	1.000000e+00	1.000000e+00	1.000000e+00	1.000000e+00	1.000000e+00	1.000000e+00	1.000000e+00	1.000000e+00	1.000000e+00	1.000000e+00	1.000000e+00	1.000000e+00	1.000000e+00	1.000000e+00	1.000000e+00	1.000000e+00	1.000000e+00	1.000000e+00	1.000000e+00	1.000000e+00	1.000000e+00	1.000000e+00	1.000000e+00	1.000000e+00	1.095485e+00	1.092805e+00	1.083944e+00	1.072317e+00	1.060748e+00	1.047369e+00	1.031633e+00	1.018485e+00	1.009607e+00	1.003460e+00	9.986716e-01	9.946918e-01	9.913434e-01	9.885877e-01	9.864009e-01	9.847406e-01	9.835711e-01	9.828055e-01	9.822856e-01	9.818916e-01	9.816851e-01	9.818915e-01	9.822852e-01	9.828054e-01	9.835729e-01	9.847467e-01	9.864103e-01	9.885940e-01	9.913401e-01	9.946746e-01	9.986083e-01	1.003072e+00	1.008064e+00	1.013369e+00	1.018652e+00	1.024022e+00	1.030146e+00	1.036992e+00	1.043757e+00	1.048660e+00	1.048970e+00	1.045436e+00	1.039211e+00	1.034751e+00	1.031008e+00	1.023836e+00	1.012568e+00	1.004072e+00	1.001048e+00	1.000316e+00	1.000115e+00	1.000042e+00	1.000013e+00	1.000003e+00	1.000001e+00	1.000000e+00	1.000000e+00	1.000000e+00	1.000000e+00	1.000000e+00	1.000000e+00	1.000000e+00	1.000000e+00	1.000000e+00	1.000000e+00	1.000000e+00	1.000000e+00	1.000000e+00	1.000000e+00	1.000000e+00	1.000000e+00	1.000000e+00	1.000000e+00	1.000000e+00	1.000000e+00	1.000000e+00	1.000000e+00	1.000000e+00	1.000000e+00	1.000000e+00	1.000000e+00	1.000000e+00	1.000000e+00	1.000000e+00	1.000000e+00	1.000000e+00	1.000000e+00	1.000000e+00	1.000000e+00	1.000000e+00	1.000000e+00	1.000000e+00	1.000000e+00	1.000000e+00	1.000000e+00	1.000000e+00	1.000000e+00	1.000000e+00	1.000000e+00	1.000000e+00	1.000000e+00	1.066102e+00	1.066119e+00	1.063321e+00	1.060748e+00	1.056466e+00	1.048483e+00	1.036747e+00	1.023748e+00	1.014927e+00	1.009983e+00	1.006396e+00	1.003316e+00	1.000702e+00	9.985868e-01	9.968951e-01	9.955479e-01	9.945110e-01	9.937652e-01	9.932392e-01	9.928726e-01	9.927377e-01	9.928723e-01	9.932388e-01	9.937661e-01	9.945153e-01	9.955566e-01	9.969045e-01	9.985902e-01	1.000697e+00	1.003274e+00	1.006190e+00	1.009115e+00	1.011699e+00	1.014078e+00	1.016694e+00	1.020194e+00	1.024028e+00	1.027120e+00	1.029416e+00	1.031618e+00	1.034207e+00	1.035047e+00	1.034583e+00	1.033940e+00	1.032556e+00	1.029172e+00	1.020505e+00	1.009221e+00	1.002634e+00	1.000669e+00	1.000208e+00	1.000075e+00	1.000026e+00	1.000008e+00	1.000002e+00	1.000000e+00	1.000000e+00	1.000000e+00	1.000000e+00	1.000000e+00	1.000000e+00	1.000000e+00	1.000000e+00	1.000000e+00	1.000000e+00	1.000000e+00	1.000000e+00	1.000000e+00	1.000000e+00	1.000000e+00	1.000000e+00	1.000000e+00	1.000000e+00	1.000000e+00	1.000000e+00	1.000000e+00	1.000000e+00	1.000000e+00	1.000000e+00	1.000000e+00	1.000000e+00	1.000000e+00	1.000000e+00	1.000000e+00	1.000000e+00	1.000000e+00	1.000000e+00	1.000000e+00	1.000000e+00	1.000000e+00	1.000000e+00	1.000000e+00	1.000000e+00	1.000000e+00	1.000000e+00	1.000000e+00	1.000000e+00	1.000000e+00	1.000000e+00	1.000000e+00	1.000000e+00	1.039021e+00	1.041573e+00	1.043725e+00	1.047369e+00	1.048483e+00	1.046985e+00	1.040331e+00	1.029397e+00	1.019268e+00	1.013964e+00	1.011656e+00	1.010460e+00	1.009640e+00	1.008857e+00	1.007988e+00	1.007070e+00	1.006192e+00	1.005446e+00	1.004893e+00	1.004552e+00	1.004430e+00	1.004552e+00	1.004894e+00	1.005449e+00	1.006198e+00	1.007078e+00	1.007996e+00	1.008865e+00	1.009624e+00	1.010325e+00	1.011066e+00	1.011878e+00	1.012732e+00	1.013705e+00	1.014949e+00	1.015801e+00	1.015703e+00	1.014934e+00	1.014013e+00	1.014581e+00	1.019256e+00	1.026655e+00	1.031695e+00	1.032905e+00	1.032852e+00	1.031501e+00	1.026533e+00	1.016201e+00	1.006109e+00	1.001581e+00	1.000409e+00	1.000131e+00	1.000046e+00	1.000015e+00	1.000004e+00	1.000001e+00	1.000000e+00	1.000000e+00	1.000000e+00	1.000000e+00	1.000000e+00	1.000000e+00	1.000000e+00	1.000000e+00	1.000000e+00	1.000000e+00	1.000000e+00	1.000000e+00	1.000000e+00	1.000000e+00	1.000000e+00	1.000000e+00	1.000000e+00	1.000000e+00	1.000000e+00	1.000000e+00	1.000000e+00	1.000000e+00	1.000000e+00	1.000000e+00	1.000000e+00	1.000000e+00	1.000000e+00	1.000000e+00	1.000000e+00	1.000000e+00	1.000000e+00	1.000000e+00	1.000000e+00	1.000000e+00	1.000000e+00	1.000000e+00	1.000000e+00	1.000000e+00	1.000000e+00	1.000000e+00	1.000000e+00	1.000000e+00	1.000000e+00	1.000000e+00	1.000000e+00	1.019741e+00	1.023196e+00	1.026085e+00	1.031633e+00	1.036747e+00	1.040331e+00	1.040140e+00	1.033710e+00	1.023649e+00	1.016925e+00	1.014871e+00	1.015260e+00	1.015838e+00	1.016138e+00	1.016169e+00	1.015888e+00	1.015446e+00	1.014965e+00	1.014563e+00	1.014321e+00	1.014251e+00	1.014321e+00	1.014564e+00	1.014970e+00	1.015453e+00	1.015893e+00	1.016186e+00	1.016193e+00	1.015793e+00	1.014793e+00	1.013566e+00	1.012861e+00	1.012743e+00	1.012570e+00	1.011374e+00	1.008351e+00	1.004448e+00	1.001383e+00	1.000351e+00	1.002358e+00	1.009232e+00	1.018849e+00	1.027412e+00	1.031616e+00	1.032424e+00	1.032097e+00	1.029823e+00	1.022606e+00	1.011538e+00	1.003637e+00	1.000884e+00	1.000238e+00	1.000078e+00	1.000026e+00	1.000008e+00	1.000002e+00	1.000000e+00	1.000000e+00	1.000000e+00	1.000000e+00	1.000000e+00	1.000000e+00	1.000000e+00	1.000000e+00	1.000000e+00	1.000000e+00	1.000000e+00	1.000000e+00	1.000000e+00	1.000000e+00	1.000000e+00	1.000000e+00	1.000000e+00	1.000000e+00	1.000000e+00	1.000000e+00	1.000000e+00	1.000000e+00	1.000000e+00	1.000000e+00	1.000000e+00	1.000000e+00	1.000000e+00	1.000000e+00	1.000000e+00	1.000000e+00	1.000000e+00	1.000000e+00	1.000000e+00	1.000000e+00	1.000000e+00	1.000000e+00	1.000000e+00	1.000000e+00	1.000000e+00	1.000000e+00	1.000000e+00	1.000000e+00	1.000000e+00	1.000000e+00	1.000000e+00	1.006533e+00	1.010300e+00	1.012393e+00	1.018485e+00	1.023748e+00	1.029397e+00	1.033710e+00	1.033749e+00	1.027407e+00	1.020372e+00	1.018206e+00	1.018590e+00	1.019037e+00	1.019354e+00	1.019719e+00	1.019863e+00	1.019867e+00	1.019804e+00	1.019709e+00	1.019632e+00	1.019607e+00	1.019632e+00	1.019712e+00	1.019810e+00	1.019874e+00	1.019870e+00	1.019753e+00	1.019440e+00	1.018864e+00	1.017739e+00	1.015896e+00	1.013571e+00	1.011066e+00	1.007951e+00	1.003409e+00	9.979127e-01	9.931821e-01	9.910086e-01	9.912283e-01	9.953174e-01	1.002736e+00	1.012064e+00	1.021861e+00	1.028954e+00	1.031556e+00	1.031904e+00	1.030980e+00	1.026950e+00	1.017558e+00	1.007241e+00	1.001947e+00	1.000466e+00	1.000132e+00	1.000044e+00	1.000014e+00	1.000004e+00	1.000001e+00	1.000000e+00	1.000000e+00	1.000000e+00	1.000000e+00	1.000000e+00	1.000000e+00	1.000000e+00	1.000000e+00	1.000000e+00	1.000000e+00	1.000000e+00	1.000000e+00	1.000000e+00	1.000000e+00	1.000000e+00	1.000000e+00	1.000000e+00	1.000000e+00	1.000000e+00	1.000000e+00	1.000000e+00	1.000000e+00	1.000000e+00	1.000000e+00	1.000000e+00	1.000000e+00	1.000000e+00	1.000000e+00	1.000000e+00	1.000000e+00	1.000000e+00	1.000000e+00	1.000000e+00	1.000000e+00	1.000000e+00	1.000000e+00	1.000000e+00	1.000000e+00	1.000000e+00	1.000000e+00	1.000000e+00	1.000000e+00	1.000000e+00	1.000000e+00	9.965821e-01	1.000601e+00	1.002851e+00	1.009607e+00	1.014927e+00	1.019268e+00	1.023649e+00	1.027407e+00	1.027253e+00	1.023026e+00	1.020295e+00	1.020254e+00	1.020494e+00	1.020671e+00	1.021004e+00	1.021172e+00	1.021234e+00	1.021282e+00	1.021310e+00	1.021285e+00	1.021272e+00	1.021286e+00	1.021313e+00	1.021288e+00	1.021243e+00	1.021189e+00	1.021050e+00	1.020712e+00	1.020099e+00	1.018781e+00	1.016223e+00	1.011699e+00	1.005452e+00	9.990286e-01	9.933121e-01	9.888422e-01	9.861702e-01	9.854408e-01	9.866902e-01	9.910818e-01	9.978243e-01	1.006331e+00	1.016119e+00	1.025083e+00	1.030064e+00	1.031241e+00	1.031213e+00	1.029196e+00	1.022572e+00	1.011990e+00	1.003954e+00	1.000950e+00	1.000234e+00	1.000070e+00	1.000023e+00	1.000007e+00	1.000002e+00	1.000000e+00	1.000000e+00	1.000000e+00	1.000000e+00	1.000000e+00	1.000000e+00	1.000000e+00	1.000000e+00	1.000000e+00	1.000000e+00	1.000000e+00	1.000000e+00	1.000000e+00	1.000000e+00	1.000000e+00	1.000000e+00	1.000000e+00	1.000000e+00	1.000000e+00	1.000000e+00	1.000000e+00	1.000000e+00	1.000000e+00	1.000000e+00	1.000000e+00	1.000000e+00	1.000000e+00	1.000000e+00	1.000000e+00	1.000000e+00	1.000000e+00	1.000000e+00	1.000000e+00	1.000000e+00	1.000000e+00	1.000000e+00	1.000000e+00	1.000000e+00	1.000000e+00	1.000000e+00	1.000000e+00	1.000000e+00	1.000000e+00	1.000000e+00	9.886377e-01	9.927507e-01	9.958777e-01	1.003460e+00	1.009983e+00	1.013964e+00	1.016925e+00	1.020372e+00	1.023026e+00	1.021353e+00	1.017863e+00	1.017351e+00	1.018462e+00	1.019388e+00	1.020223e+00	1.020784e+00	1.021161e+00	1.021432e+00	1.021603e+00	1.021661e+00	1.021670e+00	1.021662e+00	1.021606e+00	1.021439e+00	1.021177e+00	1.020816e+00	1.020264e+00	1.019306e+00	1.017668e+00	1.015066e+00	1.011078e+00	1.005316e+00	9.980271e-01	9.909591e-01	9.863623e-01	9.841776e-01	9.833912e-01	9.833115e-01	9.845848e-01	9.881127e-01	9.938256e-01	1.001504e+00	1.010842e+00	1.020582e+00	1.027703e+00	1.030414e+00	1.030817e+00	1.029982e+00	1.025942e+00	1.016826e+00	1.006990e+00	1.001887e+00	1.000433e+00	1.000113e+00	1.000035e+00	1.000011e+00	1.000003e+00	1.000001e+00	1.000000e+00	1.000000e+00	1.000000e+00	1.000000e+00	1.000000e+00	1.000000e+00	1.000000e+00	1.000000e+00	1.000000e+00	1.000000e+00	1.000000e+00	1.000000e+00	1.000000e+00	1.000000e+00	1.000000e+00	1.000000e+00	1.000000e+00	1.000000e+00	1.000000e+00	1.000000e+00	1.000000e+00	1.000000e+00	1.000000e+00	1.000000e+00	1.000000e+00	1.000000e+00	1.000000e+00	1.000000e+00	1.000000e+00	1.000000e+00	1.000000e+00	1.000000e+00	1.000000e+00	1.000000e+00	1.000000e+00	1.000000e+00	1.000000e+00	1.000000e+00	1.000000e+00	1.000000e+00	1.000000e+00	1.000000e+00	1.000000e+00	9.822500e-01	9.863799e-01	9.904957e-01	9.986716e-01	1.006396e+00	1.011656e+00	1.014871e+00	1.018206e+00	1.020295e+00	1.017863e+00	1.012769e+00	1.010237e+00	1.011610e+00	1.013588e+00	1.015438e+00	1.016890e+00	1.017915e+00	1.018630e+00	1.019165e+00	1.019487e+00	1.019586e+00	1.019488e+00	1.019169e+00	1.018643e+00	1.017942e+00	1.016924e+00	1.015432e+00	1.013284e+00	1.010387e+00	1.006750e+00	1.002521e+00	9.979423e-01	9.931306e-01	9.883284e-01	9.846096e-01	9.829053e-01	9.825328e-01	9.826567e-01	9.835326e-01	9.860017e-01	9.906180e-01	9.974625e-01	1.006224e+00	1.016075e+00	1.024723e+00	1.029237e+00	1.030208e+00	1.030125e+00	1.027799e+00	1.020838e+00	1.010667e+00	1.003431e+00	1.000806e+00	1.000189e+00	1.000053e+00	1.000016e+00	1.000005e+00	1.000001e+00	1.000000e+00	1.000000e+00	1.000000e+00	1.000000e+00	1.000000e+00	1.000000e+00	1.000000e+00	1.000000e+00	1.000000e+00	1.000000e+00	1.000000e+00	1.000000e+00	1.000000e+00	1.000000e+00	1.000000e+00	1.000000e+00	1.000000e+00	1.000000e+00	1.000000e+00	1.000000e+00	1.000000e+00	1.000000e+00	1.000000e+00	1.000000e+00	1.000000e+00	1.000000e+00	1.000000e+00	1.000000e+00	1.000000e+00	1.000000e+00	1.000000e+00	1.000000e+00	1.000000e+00	1.000000e+00	1.000000e+00	1.000000e+00	1.000000e+00	1.000000e+00	1.000000e+00	1.000000e+00	1.000000e+00	1.000000e+00	1.000000e+00	9.772872e-01	9.814065e-01	9.862756e-01	9.946918e-01	1.003316e+00	1.010460e+00	1.015260e+00	1.018590e+00	1.020254e+00	1.017351e+00	1.010237e+00	1.004570e+00	1.003452e+00	1.005098e+00	1.007131e+00	1.009086e+00	1.010666e+00	1.011842e+00	1.012669e+00	1.013204e+00	1.013490e+00	1.013205e+00	1.012677e+00	1.011863e+00	1.010697e+00	1.009097e+00	1.007031e+00	1.004564e+00	1.001849e+00	9.990998e-01	9.965272e-01	9.941590e-01	9.917545e-01	9.889247e-01	9.857442e-01	9.833986e-01	9.826059e-01	9.825483e-01	9.830181e-01	9.845848e-01	9.881826e-01	9.941453e-01	1.002265e+00	1.011905e+00	1.021383e+00	1.027619e+00	1.029581e+00	1.029829e+00	1.028595e+00	1.023704e+00	1.014356e+00	1.005558e+00	1.001435e+00	1.000320e+00	1.000080e+00	1.000023e+00	1.000007e+00	1.000002e+00	1.000000e+00	1.000000e+00	1.000000e+00	1.000000e+00	1.000000e+00	1.000000e+00	1.000000e+00	1.000000e+00	1.000000e+00	1.000000e+00	1.000000e+00	1.000000e+00	1.000000e+00	1.000000e+00	1.000000e+00	1.000000e+00	1.000000e+00	1.000000e+00	1.000000e+00	1.000000e+00	1.000000e+00	1.000000e+00	1.000000e+00	1.000000e+00	1.000000e+00	1.000000e+00	1.000000e+00	1.000000e+00	1.000000e+00	1.000000e+00	1.000000e+00	1.000000e+00	1.000000e+00	1.000000e+00	1.000000e+00	1.000000e+00	1.000000e+00	1.000000e+00	1.000000e+00	1.000000e+00	1.000000e+00	1.000000e+00	1.000000e+00	9.737023e-01	9.777031e-01	9.829332e-01	9.913434e-01	1.000702e+00	1.009640e+00	1.015838e+00	1.019037e+00	1.020494e+00	1.018462e+00	1.011610e+00	1.003452e+00	9.993920e-01	9.989802e-01	1.000034e+00	1.001326e+00	1.002595e+00	1.003656e+00	1.004434e+00	1.004920e+00	1.005147e+00	1.004924e+00	1.004447e+00	1.003682e+00	1.002618e+00	1.001298e+00	9.998243e-01	9.983218e-01	9.968992e-01	9.956183e-01	9.944653e-01	9.933263e-01	9.919782e-01	9.900707e-01	9.873904e-01	9.846295e-01	9.830806e-01	9.827494e-01	9.828266e-01	9.837793e-01	9.864517e-01	9.915071e-01	9.989302e-01	1.008201e+00	1.018037e+00	1.025655e+00	1.028852e+00	1.029362e+00	1.028917e+00	1.025529e+00	1.017560e+00	1.008041e+00	1.002362e+00	1.000532e+00	1.000122e+00	1.000033e+00	1.000010e+00	1.000003e+00	1.000001e+00	1.000000e+00	1.000000e+00	1.000000e+00	1.000000e+00	1.000000e+00	1.000000e+00	1.000000e+00	1.000000e+00	1.000000e+00	1.000000e+00	1.000000e+00	1.000000e+00	1.000000e+00	1.000000e+00	1.000000e+00	1.000000e+00	1.000000e+00	1.000000e+00	1.000000e+00	1.000000e+00	1.000000e+00	1.000000e+00	1.000000e+00	1.000000e+00	1.000000e+00	1.000000e+00	1.000000e+00	1.000000e+00	1.000000e+00	1.000000e+00	1.000000e+00	1.000000e+00	1.000000e+00	1.000000e+00	1.000000e+00	1.000000e+00	1.000000e+00	1.000000e+00	1.000000e+00	1.000000e+00	1.000000e+00	1.000000e+00	9.713155e-01	9.750340e-01	9.802956e-01	9.885877e-01	9.985868e-01	1.008857e+00	1.016138e+00	1.019354e+00	1.020671e+00	1.019388e+00	1.013588e+00	1.005098e+00	9.989802e-01	9.969442e-01	9.968374e-01	9.972806e-01	9.978308e-01	9.983669e-01	9.987989e-01	9.990710e-01	9.991840e-01	9.990803e-01	9.988181e-01	9.983912e-01	9.978387e-01	9.972168e-01	9.965813e-01	9.959584e-01	9.953531e-01	9.947607e-01	9.941388e-01	9.934094e-01	9.924293e-01	9.909597e-01	9.887573e-01	9.860017e-01	9.838110e-01	9.830274e-01	9.829377e-01	9.834183e-01	9.853021e-01	9.894923e-01	9.961852e-01	1.005005e+00	1.014910e+00	1.023514e+00	1.027965e+00	1.028938e+00	1.028867e+00	1.026583e+00	1.020066e+00	1.010563e+00	1.003553e+00	1.000845e+00	1.000185e+00	1.000046e+00	1.000013e+00	1.000004e+00	1.000001e+00	1.000000e+00	1.000000e+00	1.000000e+00	1.000000e+00	1.000000e+00	1.000000e+00	1.000000e+00	1.000000e+00	1.000000e+00	1.000000e+00	1.000000e+00	1.000000e+00	1.000000e+00	1.000000e+00	1.000000e+00	1.000000e+00	1.000000e+00	1.000000e+00	1.000000e+00	1.000000e+00	1.000000e+00	1.000000e+00	1.000000e+00	1.000000e+00	1.000000e+00	1.000000e+00	1.000000e+00	1.000000e+00	1.000000e+00	1.000000e+00	1.000000e+00	1.000000e+00	1.000000e+00	1.000000e+00	1.000000e+00	1.000000e+00	1.000000e+00	1.000000e+00	1.000000e+00	1.000000e+00	1.000000e+00	1.000000e+00	9.698859e-01	9.732023e-01	9.782488e-01	9.864009e-01	9.968951e-01	1.007988e+00	1.016169e+00	1.019719e+00	1.021004e+00	1.020223e+00	1.015438e+00	1.007131e+00	1.000034e+00	9.968374e-01	9.960987e-01	9.960976e-01	9.962585e-01	9.964428e-01	9.966062e-01	9.967165e-01	9.967614e-01	9.967298e-01	9.966300e-01	9.964659e-01	9.962555e-01	9.960087e-01	9.957350e-01	9.954332e-01	9.950874e-01	9.946954e-01	9.942361e-01	9.936544e-01	9.928492e-01	9.916403e-01	9.897882e-01	9.872142e-01	9.846619e-01	9.833736e-01	9.831506e-01	9.833198e-01	9.846509e-01	9.880286e-01	9.939956e-01	1.002324e+00	1.012135e+00	1.021365e+00	1.026963e+00	1.028520e+00	1.028660e+00	1.027179e+00	1.021883e+00	1.012867e+00	1.004900e+00	1.001258e+00	1.000272e+00	1.000063e+00	1.000017e+00	1.000005e+00	1.000001e+00	1.000000e+00	1.000000e+00	1.000000e+00	1.000000e+00	1.000000e+00	1.000000e+00	1.000000e+00	1.000000e+00	1.000000e+00	1.000000e+00	1.000000e+00	1.000000e+00	1.000000e+00	1.000000e+00	1.000000e+00	1.000000e+00	1.000000e+00	1.000000e+00	1.000000e+00	1.000000e+00	1.000000e+00	1.000000e+00	1.000000e+00	1.000000e+00	1.000000e+00	1.000000e+00	1.000000e+00	1.000000e+00	1.000000e+00	1.000000e+00	1.000000e+00	1.000000e+00	1.000000e+00	1.000000e+00	1.000000e+00	1.000000e+00	1.000000e+00	1.000000e+00	1.000000e+00	1.000000e+00	1.000000e+00	1.000000e+00	9.690813e-01	9.720872e-01	9.767559e-01	9.847406e-01	9.955479e-01	1.007070e+00	1.015888e+00	1.019863e+00	1.021172e+00	1.020784e+00	1.016890e+00	1.009086e+00	1.001326e+00	9.972806e-01	9.960976e-01	9.959210e-01	9.959630e-01	9.960388e-01	9.961057