# vtk DataFile Version 3.0
vtk output
ASCII
DATASET STRUCTURED_GRID
DIMENSIONS 101 101 1
POINTS 10201 double
0.000000e+00	0.000000e+00	0.0	1.000000e-02	0.000000e+00	0.0	2.000000e-02	0.000000e+00	0.0	3.000000e-02	0.000000e+00	0.0	4.000000e-02	0.000000e+00	0.0	5.000000e-02	0.000000e+00	0.0	6.000000e-02	0.000000e+00	0.0	7.000000e-02	0.000000e+00	0.0	8.000000e-02	0.000000e+00	0.0	9.000000e-02	0.000000e+00	0.0	1.000000e-01	0.000000e+00	0.0	1.100000e-01	0.000000e+00	0.0	1.200000e-01	0.000000e+00	0.0	1.300000e-01	0.000000e+00	0.0	1.400000e-01	0.000000e+00	0.0	1.500000e-01	0.000000e+00	0.0	1.600000e-01	0.000000e+00	0.0	1.700000e-01	0.000000e+00	0.0	1.800000e-01	0.000000e+00	0.0	1.900000e-01	0.000000e+00	0.0	2.000000e-01	0.000000e+00	0.0	2.100000e-01	0.000000e+00	0.0	2.200000e-01	0.000000e+00	0.0	2.300000e-01	0.000000e+00	0.0	2.400000e-01	0.000000e+00	0.0	2.500000e-01	0.000000e+00	0.0	2.600000e-01	0.000000e+00	0.0	2.700000e-01	0.000000e+00	0.0	2.800000e-01	0.000000e+00	0.0	2.900000e-01	0.000000e+00	0.0	3.000000e-01	0.000000e+00	0.0	3.100000e-01	0.000000e+00	0.0	3.200000e-01	0.000000e+00	0.0	3.300000e-01	0.000000e+00	0.0	3.400000e-01	0.000000e+00	0.0	3.500000e-01	0.000000e+00	0.0	3.600000e-01	0.000000e+00	0.0	3.700000e-01	0.000000e+00	0.0	3.800000e-01	0.000000e+00	0.0	3.900000e-01	0.000000e+00	0.0	4.000000e-01	0.000000e+00	0.0	4.100000e-01	0.000000e+00	0.0	4.200000e-01	0.000000e+00	0.0	4.300000e-01	0.000000e+00	0.0	4.400000e-01	0.000000e+00	0.0	4.500000e-01	0.000000e+00	0.0	4.600000e-01	0.000000e+00	0.0	4.700000e-01	0.000000e+00	0.0	4.800000e-01	0.000000e+00	0.0	4.900000e-01	0.000000e+00	0.0	5.000000e-01	0.000000e+00	0.0	5.100000e-01	0.000000e+00	0.0	5.200000e-01	0.000000e+00	0.0	5.300000e-01	0.000000e+00	0.0	5.400000e-01	0.000000e+00	0.0	5.500000e-01	0.000000e+00	0.0	5.600000e-01	0.000000e+00	0.0	5.700000e-01	0.000000e+00	0.0	5.800000e-01	0.000000e+00	0.0	5.900000e-01	0.000000e+00	0.0	6.000000e-01	0.000000e+00	0.0	6.100000e-01	0.000000e+00	0.0	6.200000e-01	0.000000e+00	0.0	6.300000e-01	0.000000e+00	0.0	6.400000e-01	0.000000e+00	0.0	6.500000e-01	0.000000e+00	0.0	6.600000e-01	0.000000e+00	0.0	6.700000e-01	0.000000e+00	0.0	6.800000e-01	0.000000e+00	0.0	6.900000e-01	0.000000e+00	0.0	7.000000e-01	0.000000e+00	0.0	7.100000e-01	0.000000e+00	0.0	7.200000e-01	0.000000e+00	0.0	7.300000e-01	0.000000e+00	0.0	7.400000e-01	0.000000e+00	0.0	7.500000e-01	0.000000e+00	0.0	7.600000e-01	0.000000e+00	0.0	7.700000e-01	0.000000e+00	0.0	7.800000e-01	0.000000e+00	0.0	7.900000e-01	0.000000e+00	0.0	8.000000e-01	0.000000e+00	0.0	8.100000e-01	0.000000e+00	0.0	8.200000e-01	0.000000e+00	0.0	8.300000e-01	0.000000e+00	0.0	8.400000e-01	0.000000e+00	0.0	8.500000e-01	0.000000e+00	0.0	8.600000e-01	0.000000e+00	0.0	8.700000e-01	0.000000e+00	0.0	8.800000e-01	0.000000e+00	0.0	8.900000e-01	0.000000e+00	0.0	9.000000e-01	0.000000e+00	0.0	9.100000e-01	0.000000e+00	0.0	9.200000e-01	0.000000e+00	0.0	9.300000e-01	0.000000e+00	0.0	9.400000e-01	0.000000e+00	0.0	9.500000e-01	0.000000e+00	0.0	9.600000e-01	0.000000e+00	0.0	9.700000e-01	0.000000e+00	0.0	9.800000e-01	0.000000e+00	0.0	9.900000e-01	0.000000e+00	0.0	1.000000e+00	0.000000e+00	0.0	0.000000e+00	1.000000e-02	0.0	1.000000e-02	1.000000e-02	0.0	2.000000e-02	1.000000e-02	0.0	3.000000e-02	1.000000e-02	0.0	4.000000e-02	1.000000e-02	0.0	5.000000e-02	1.000000e-02	0.0	6.000000e-02	1.000000e-02	0.0	7.000000e-02	1.000000e-02	0.0	8.000000e-02	1.000000e-02	0.0	9.000000e-02	1.000000e-02	0.0	1.000000e-01	1.000000e-02	0.0	1.100000e-01	1.000000e-02	0.0	1.200000e-01	1.000000e-02	0.0	1.300000e-01	1.000000e-02	0.0	1.400000e-01	1.000000e-02	0.0	1.500000e-01	1.000000e-02	0.0	1.600000e-01	1.000000e-02	0.0	1.700000e-01	1.000000e-02	0.0	1.800000e-01	1.000000e-02	0.0	1.900000e-01	1.000000e-02	0.0	2.000000e-01	1.000000e-02	0.0	2.100000e-01	1.000000e-02	0.0	2.200000e-01	1.000000e-02	0.0	2.300000e-01	1.000000e-02	0.0	2.400000e-01	1.000000e-02	0.0	2.500000e-01	1.000000e-02	0.0	2.600000e-01	1.000000e-02	0.0	2.700000e-01	1.000000e-02	0.0	2.800000e-01	1.000000e-02	0.0	2.900000e-01	1.000000e-02	0.0	3.000000e-01	1.000000e-02	0.0	3.100000e-01	1.000000e-02	0.0	3.200000e-01	1.000000e-02	0.0	3.300000e-01	1.000000e-02	0.0	3.400000e-01	1.000000e-02	0.0	3.500000e-01	1.000000e-02	0.0	3.600000e-01	1.000000e-02	0.0	3.700000e-01	1.000000e-02	0.0	3.800000e-01	1.000000e-02	0.0	3.900000e-01	1.000000e-02	0.0	4.000000e-01	1.000000e-02	0.0	4.100000e-01	1.000000e-02	0.0	4.200000e-01	1.000000e-02	0.0	4.300000e-01	1.000000e-02	0.0	4.400000e-01	1.000000e-02	0.0	4.500000e-01	1.000000e-02	0.0	4.600000e-01	1.000000e-02	0.0	4.700000e-01	1.000000e-02	0.0	4.800000e-01	1.000000e-02	0.0	4.900000e-01	1.000000e-02	0.0	5.000000e-01	1.000000e-02	0.0	5.100000e-01	1.000000e-02	0.0	5.200000e-01	1.000000e-02	0.0	5.300000e-01	1.000000e-02	0.0	5.400000e-01	1.000000e-02	0.0	5.500000e-01	1.000000e-02	0.0	5.600000e-01	1.000000e-02	0.0	5.700000e-01	1.000000e-02	0.0	5.800000e-01	1.000000e-02	0.0	5.900000e-01	1.000000e-02	0.0	6.000000e-01	1.000000e-02	0.0	6.100000e-01	1.000000e-02	0.0	6.200000e-01	1.000000e-02	0.0	6.300000e-01	1.000000e-02	0.0	6.400000e-01	1.000000e-02	0.0	6.500000e-01	1.000000e-02	0.0	6.600000e-01	1.000000e-02	0.0	6.700000e-01	1.000000e-02	0.0	6.800000e-01	1.000000e-02	0.0	6.900000e-01	1.000000e-02	0.0	7.000000e-01	1.000000e-02	0.0	7.100000e-01	1.000000e-02	0.0	7.200000e-01	1.000000e-02	0.0	7.300000e-01	1.000000e-02	0.0	7.400000e-01	1.000000e-02	0.0	7.500000e-01	1.000000e-02	0.0	7.600000e-01	1.000000e-02	0.0	7.700000e-01	1.000000e-02	0.0	7.800000e-01	1.000000e-02	0.0	7.900000e-01	1.000000e-02	0.0	8.000000e-01	1.000000e-02	0.0	8.100000e-01	1.000000e-02	0.0	8.200000e-01	1.000000e-02	0.0	8.300000e-01	1.000000e-02	0.0	8.400000e-01	1.000000e-02	0.0	8.500000e-01	1.000000e-02	0.0	8.600000e-01	1.000000e-02	0.0	8.700000e-01	1.000000e-02	0.0	8.800000e-01	1.000000e-02	0.0	8.900000e-01	1.000000e-02	0.0	9.000000e-01	1.000000e-02	0.0	9.100000e-01	1.000000e-02	0.0	9.200000e-01	1.000000e-02	0.0	9.300000e-01	1.000000e-02	0.0	9.400000e-01	1.000000e-02	0.0	9.500000e-01	1.000000e-02	0.0	9.600000e-01	1.000000e-02	0.0	9.700000e-01	1.000000e-02	0.0	9.800000e-01	1.000000e-02	0.0	9.900000e-01	1.000000e-02	0.0	1.000000e+00	1.000000e-02	0.0	0.000000e+00	2.000000e-02	0.0	1.000000e-02	2.000000e-02	0.0	2.000000e-02	2.000000e-02	0.0	3.000000e-02	2.000000e-02	0.0	4.000000e-02	2.000000e-02	0.0	5.000000e-02	2.000000e-02	0.0	6.000000e-02	2.000000e-02	0.0	7.000000e-02	2.000000e-02	0.0	8.000000e-02	2.000000e-02	0.0	9.000000e-02	2.000000e-02	0.0	1.000000e-01	2.000000e-02	0.0	1.100000e-01	2.000000e-02	0.0	1.200000e-01	2.000000e-02	0.0	1.300000e-01	2.000000e-02	0.0	1.400000e-01	2.000000e-02	0.0	1.500000e-01	2.000000e-02	0.0	1.600000e-01	2.000000e-02	0.0	1.700000e-01	2.000000e-02	0.0	1.800000e-01	2.000000e-02	0.0	1.900000e-01	2.000000e-02	0.0	2.000000e-01	2.000000e-02	0.0	2.100000e-01	2.000000e-02	0.0	2.200000e-01	2.000000e-02	0.0	2.300000e-01	2.000000e-02	0.0	2.400000e-01	2.000000e-02	0.0	2.500000e-01	2.000000e-02	0.0	2.600000e-01	2.000000e-02	0.0	2.700000e-01	2.000000e-02	0.0	2.800000e-01	2.000000e-02	0.0	2.900000e-01	2.000000e-02	0.0	3.000000e-01	2.000000e-02	0.0	3.100000e-01	2.000000e-02	0.0	3.200000e-01	2.000000e-02	0.0	3.300000e-01	2.000000e-02	0.0	3.400000e-01	2.000000e-02	0.0	3.500000e-01	2.000000e-02	0.0	3.600000e-01	2.000000e-02	0.0	3.700000e-01	2.000000e-02	0.0	3.800000e-01	2.000000e-02	0.0	3.900000e-01	2.000000e-02	0.0	4.000000e-01	2.000000e-02	0.0	4.100000e-01	2.000000e-02	0.0	4.200000e-01	2.000000e-02	0.0	4.300000e-01	2.000000e-02	0.0	4.400000e-01	2.000000e-02	0.0	4.500000e-01	2.000000e-02	0.0	4.600000e-01	2.000000e-02	0.0	4.700000e-01	2.000000e-02	0.0	4.800000e-01	2.000000e-02	0.0	4.900000e-01	2.000000e-02	0.0	5.000000e-01	2.000000e-02	0.0	5.100000e-01	2.000000e-02	0.0	5.200000e-01	2.000000e-02	0.0	5.300000e-01	2.000000e-02	0.0	5.400000e-01	2.000000e-02	0.0	5.500000e-01	2.000000e-02	0.0	5.600000e-01	2.000000e-02	0.0	5.700000e-01	2.000000e-02	0.0	5.800000e-01	2.000000e-02	0.0	5.900000e-01	2.000000e-02	0.0	6.000000e-01	2.000000e-02	0.0	6.100000e-01	2.000000e-02	0.0	6.200000e-01	2.000000e-02	0.0	6.300000e-01	2.000000e-02	0.0	6.400000e-01	2.000000e-02	0.0	6.500000e-01	2.000000e-02	0.0	6.600000e-01	2.000000e-02	0.0	6.700000e-01	2.000000e-02	0.0	6.800000e-01	2.000000e-02	0.0	6.900000e-01	2.000000e-02	0.0	7.000000e-01	2.000000e-02	0.0	7.100000e-01	2.000000e-02	0.0	7.200000e-01	2.000000e-02	0.0	7.300000e-01	2.000000e-02	0.0	7.400000e-01	2.000000e-02	0.0	7.500000e-01	2.000000e-02	0.0	7.600000e-01	2.000000e-02	0.0	7.700000e-01	2.000000e-02	0.0	7.800000e-01	2.000000e-02	0.0	7.900000e-01	2.000000e-02	0.0	8.000000e-01	2.000000e-02	0.0	8.100000e-01	2.000000e-02	0.0	8.200000e-01	2.000000e-02	0.0	8.300000e-01	2.000000e-02	0.0	8.400000e-01	2.000000e-02	0.0	8.500000e-01	2.000000e-02	0.0	8.600000e-01	2.000000e-02	0.0	8.700000e-01	2.000000e-02	0.0	8.800000e-01	2.000000e-02	0.0	8.900000e-01	2.000000e-02	0.0	9.000000e-01	2.000000e-02	0.0	9.100000e-01	2.000000e-02	0.0	9.200000e-01	2.000000e-02	0.0	9.300000e-01	2.000000e-02	0.0	9.400000e-01	2.000000e-02	0.0	9.500000e-01	2.000000e-02	0.0	9.600000e-01	2.000000e-02	0.0	9.700000e-01	2.000000e-02	0.0	9.800000e-01	2.000000e-02	0.0	9.900000e-01	2.000000e-02	0.0	1.000000e+00	2.000000e-02	0.0	0.000000e+00	3.000000e-02	0.0	1.000000e-02	3.000000e-02	0.0	2.000000e-02	3.000000e-02	0.0	3.000000e-02	3.000000e-02	0.0	4.000000e-02	3.000000e-02	0.0	5.000000e-02	3.000000e-02	0.0	6.000000e-02	3.000000e-02	0.0	7.000000e-02	3.000000e-02	0.0	8.000000e-02	3.000000e-02	0.0	9.000000e-02	3.000000e-02	0.0	1.000000e-01	3.000000e-02	0.0	1.100000e-01	3.000000e-02	0.0	1.200000e-01	3.000000e-02	0.0	1.300000e-01	3.000000e-02	0.0	1.400000e-01	3.000000e-02	0.0	1.500000e-01	3.000000e-02	0.0	1.600000e-01	3.000000e-02	0.0	1.700000e-01	3.000000e-02	0.0	1.800000e-01	3.000000e-02	0.0	1.900000e-01	3.000000e-02	0.0	2.000000e-01	3.000000e-02	0.0	2.100000e-01	3.000000e-02	0.0	2.200000e-01	3.000000e-02	0.0	2.300000e-01	3.000000e-02	0.0	2.400000e-01	3.000000e-02	0.0	2.500000e-01	3.000000e-02	0.0	2.600000e-01	3.000000
[...]
POINT_DATA 10201

SCALARS Height double 1
LOOKUP_TABLE default
9.984746e-01	9.984831e-01	9.984902e-01	9.984917e-01	9.985024e-01	9.985135e-01	9.985141e-01	9.985059e-01	9.984924e-01	9.984754e-01	9.984570e-01	9.984392e-01	9.984231e-01	9.984100e-01	9.983992e-01	9.983894e-01	9.983788e-01	9.983670e-01	9.983538e-01	9.983398e-01	9.983232e-01	9.982986e-01	9.982678e-01	9.982344e-01	9.981999e-01	9.981635e-01	9.981255e-01	9.980845e-01	9.980402e-01	9.979916e-01	9.979384e-01	9.978800e-01	9.978164e-01	9.977475e-01	9.976731e-01	9.975926e-01	9.975048e-01	9.974083e-01	9.973015e-01	9.971829e-01	9.970514e-01	9.969054e-01	9.967426e-01	9.965593e-01	9.963482e-01	9.960954e-01	9.957763e-01	9.953488e-01	9.947491e-01	9.938950e-01	9.927128e-01	9.912081e-01	9.895426e-01	9.880313e-01	9.869674e-01	9.864141e-01	9.862591e-01	9.864303e-01	9.874279e-01	9.897392e-01	9.934188e-01	9.982217e-01	1.003755e+00	1.009585e+00	1.015181e+00	1.019848e+00	1.022977e+00	1.024508e+00	1.024802e+00	1.023901e+00	1.020159e+00	1.013364e+00	1.006141e+00	1.001334e+00	9.991114e-01	9.983102e-01	9.980586e-01	9.979798e-01	9.979437e-01	9.979033e-01	9.978327e-01	9.977181e-01	9.975647e-01	9.973902e-01	9.972433e-01	9.972413e-01	9.977254e-01	9.995205e-01	1.003739e+00	1.010087e+00	1.015624e+00	1.017665e+00	1.016767e+00	1.014778e+00	1.011839e+00	1.007790e+00	1.002772e+00	9.972439e-01	9.921846e-01	9.891271e-01	9.866142e-01	9.984894e-01	9.984869e-01	9.984957e-01	9.984966e-01	9.985055e-01	9.985129e-01	9.985150e-01	9.985074e-01	9.984930e-01	9.984749e-01	9.984555e-01	9.984367e-01	9.984195e-01	9.984050e-01	9.983932e-01	9.983818e-01	9.983695e-01	9.983559e-01	9.983402e-01	9.983227e-01	9.983046e-01	9.982808e-01	9.982537e-01	9.982239e-01	9.981901e-01	9.981571e-01	9.981204e-01	9.980805e-01	9.980368e-01	9.979886e-01	9.979357e-01	9.978774e-01	9.978138e-01	9.977449e-01	9.976702e-01	9.975892e-01	9.975009e-01	9.974039e-01	9.972970e-01	9.971774e-01	9.970450e-01	9.968977e-01	9.967331e-01	9.965475e-01	9.963339e-01	9.960785e-01	9.957565e-01	9.953258e-01	9.947228e-01	9.938659e-01	9.926825e-01	9.911742e-01	9.894943e-01	9.879437e-01	9.868322e-01	9.863219e-01	9.862385e-01	9.864270e-01	9.874043e-01	9.896806e-01	9.933725e-01	9.982024e-01	1.003773e+00	1.009630e+00	1.015257e+00	1.020040e+00	1.023332e+00	1.024681e+00	1.024793e+00	1.023925e+00	1.020441e+00	1.013722e+00	1.006141e+00	1.001042e+00	9.988683e-01	9.981959e-01	9.980157e-01	9.979618e-01	9.979321e-01	9.978939e-01	9.978237e-01	9.977087e-01	9.975543e-01	9.973707e-01	9.971946e-01	9.971186e-01	9.974698e-01	9.992172e-01	1.003729e+00	1.010427e+00	1.015848e+00	1.017667e+00	1.016710e+00	1.014927e+00	1.012068e+00	1.007844e+00	1.002811e+00	9.972820e-01	9.921649e-01	9.891289e-01	9.865678e-01	9.984966e-01	9.984943e-01	9.985059e-01	9.985049e-01	9.985122e-01	9.985182e-01	9.985191e-01	9.985106e-01	9.984967e-01	9.984782e-01	9.984588e-01	9.984399e-01	9.984221e-01	9.984067e-01	9.983926e-01	9.983805e-01	9.983691e-01	9.983565e-01	9.983411e-01	9.983253e-01	9.983066e-01	9.982835e-01	9.982528e-01	9.982205e-01	9.981871e-01	9.981513e-01	9.981157e-01	9.980762e-01	9.980330e-01	9.979857e-01	9.979332e-01	9.978759e-01	9.978133e-01	9.977453e-01	9.976713e-01	9.975911e-01	9.975037e-01	9.974079e-01	9.973020e-01	9.971839e-01	9.970523e-01	9.969044e-01	9.967385e-01	9.965508e-01	9.963344e-01	9.960756e-01	9.957481e-01	9.953091e-01	9.946950e-01	9.938297e-01	9.926528e-01	9.911729e-01	9.895261e-01	9.879787e-01	9.868860e-01	9.864567e-01	9.864062e-01	9.866269e-01	9.876170e-01	9.898602e-01	9.935043e-01	9.982882e-01	1.003783e+00	1.009543e+00	1.015125e+00	1.019990e+00	1.023255e+00	1.024365e+00	1.024429e+00	1.023578e+00	1.020338e+00	1.013925e+00	1.006376e+00	1.001084e+00	9.988252e-01	9.981645e-01	9.980012e-01	9.979531e-01	9.979246e-01	9.978870e-01	9.978176e-01	9.977037e-01	9.975519e-01	9.973692e-01	9.971843e-01	9.970819e-01	9.974010e-01	9.992186e-01	1.003941e+00	1.010608e+00	1.015705e+00	1.017292e+00	1.016364e+00	1.014678e+00	1.012044e+00	1.007875e+00	1.002856e+00	9.974148e-01	9.923919e-01	9.894111e-01	9.868803e-01	9.984942e-01	9.984920e-01	9.985028e-01	9.985013e-01	9.985073e-01	9.985123e-01	9.985128e-01	9.985042e-01	9.984884e-01	9.984713e-01	9.984543e-01	9.984376e-01	9.984211e-01	9.984058e-01	9.983930e-01	9.983804e-01	9.983692e-01	9.983560e-01	9.983435e-01	9.983266e-01	9.983071e-01	9.982838e-01	9.982510e-01	9.982191e-01	9.981849e-01	9.981495e-01	9.981125e-01	9.980720e-01	9.980280e-01	9.979803e-01	9.979278e-01	9.978702e-01	9.978073e-01	9.977391e-01	9.976648e-01	9.975841e-01	9.974963e-01	9.974003e-01	9.972942e-01	9.971758e-01	9.970429e-01	9.968931e-01	9.967239e-01	9.965320e-01	9.963103e-01	9.960441e-01	9.957066e-01	9.952522e-01	9.946172e-01	9.937297e-01	9.925419e-01	9.910701e-01	9.894311e-01	9.878961e-01	9.868990e-01	9.865859e-01	9.865617e-01	9.868221e-01	9.878655e-01	9.901485e-01	9.937794e-01	9.985252e-01	1.003939e+00	1.009622e+00	1.015219e+00	1.020119e+00	1.023153e+00	1.024051e+00	1.024073e+00	1.023220e+00	1.020098e+00	1.013917e+00	1.006491e+00	1.001171e+00	9.988524e-01	9.981646e-01	9.979923e-01	9.979402e-01	9.979093e-01	9.978699e-01	9.977996e-01	9.976857e-01	9.975357e-01	9.973546e-01	9.971677e-01	9.970572e-01	9.973726e-01	9.992289e-01	1.003994e+00	1.010537e+00	1.015387e+00	1.016834e+00	1.015902e+00	1.014285e+00	1.011975e+00	1.008112e+00	1.003117e+00	9.976869e-01	9.927739e-01	9.899140e-01	9.874604e-01	9.984973e-01	9.984946e-01	9.985041e-01	9.985009e-01	9.985049e-01	9.985083e-01	9.985068e-01	9.984960e-01	9.984798e-01	9.984633e-01	9.984476e-01	9.984319e-01	9.984160e-01	9.984013e-01	9.983881e-01	9.983763e-01	9.983649e-01	9.983525e-01	9.983398e-01	9.983230e-01	9.983034e-01	9.982792e-01	9.982460e-01	9.982136e-01	9.981788e-01	9.981430e-01	9.981051e-01	9.980639e-01	9.980197e-01	9.979715e-01	9.979185e-01	9.978606e-01	9.977976e-01	9.977293e-01	9.976551e-01	9.975746e-01	9.974869e-01	9.973907e-01	9.972842e-01	9.971653e-01	9.970308e-01	9.968788e-01	9.967064e-01	9.965101e-01	9.962819e-01	9.960059e-01	9.956535e-01	9.951773e-01	9.945141e-01	9.935987e-01	9.923937e-01	9.909183e-01	9.892798e-01	9.878172e-01	9.869916e-01	9.867775e-01	9.867706e-01	9.870867e-01	9.882029e-01	9.905397e-01	9.941727e-01	9.988473e-01	1.004160e+00	1.009787e+00	1.015414e+00	1.020202e+00	1.022908e+00	1.023629e+00	1.023623e+00	1.022765e+00	1.019734e+00	1.013773e+00	1.006590e+00	1.001337e+00	9.989507e-01	9.981943e-01	9.979912e-01	9.979276e-01	9.978912e-01	9.978484e-01	9.977766e-01	9.976642e-01	9.975167e-01	9.973371e-01	9.971521e-01	9.970490e-01	9.973961e-01	9.992971e-01	1.003985e+00	1.010284e+00	1.014908e+00	1.016254e+00	1.015305e+00	1.013765e+00	1.011821e+00	1.008399e+00	1.003520e+00	9.981113e-01	9.933402e-01	9.906172e-01	9.882761e-01	9.984994e-01	9.984951e-01	9.985034e-01	9.984994e-01	9.985015e-01	9.985030e-01	9.984994e-01	9.984870e-01	9.984701e-01	9.984549e-01	9.984407e-01	9.984261e-01	9.984107e-01	9.983963e-01	9.983836e-01	9.983716e-01	9.983598e-01	9.983478e-01	9.983344e-01	9.983175e-01	9.982984e-01	9.982732e-01	9.982404e-01	9.982076e-01	9.981719e-01	9.981365e-01	9.980982e-01	9.980567e-01	9.980119e-01	9.979629e-01	9.979092e-01	9.978507e-01	9.977872e-01	9.977186e-01	9.976445e-01	9.975639e-01	9.974760e-01	9.973789e-01	9.972711e-01	9.971502e-01	9.970134e-01	9.968585e-01	9.966826e-01	9.964811e-01	9.962450e-01	9.959562e-01	9.955819e-01	9.950779e-01	9.943818e-01	9.934355e-01	9.922033e-01	9.906995e-01	9.890785e-01	9.877647e-01	9.871378e-01	9.869954e-01	9.870210e-01	9.874110e-01	9.886312e-01	9.910413e-01	9.946688e-01	9.992505e-01	1.004469e+00	1.010072e+00	1.015676e+00	1.020216e+00	1.022580e+00	1.023136e+00	1.023104e+00	1.022217e+00	1.019229e+00	1.013502e+00	1.006665e+00	1.001558e+00	9.990992e-01	9.982486e-01	9.979960e-01	9.979135e-01	9.978691e-01	9.978217e-01	9.977477e-01	9.976376e-01	9.974931e-01	9.973152e-01	9.971346e-01	9.970505e-01	9.974600e-01	9.994132e-01	1.003925e+00	1.009857e+00	1.014234e+00	1.015514e+00	1.014591e+00	1.013192e+00	1.011614e+00	1.008675e+00	1.004054e+00	9.987374e-01	9.940991e-01	9.915177e-01	9.893196e-01	9.984975e-01	9.984932e-01	9.984998e-01	9.984965e-01	9.984968e-01	9.984959e-01	9.984906e-01	9.984779e-01	9.984621e-01	9.984478e-01	9.984344e-01	9.984202e-01	9.984054e-01	9.983912e-01	9.983783e-01	9.983662e-01	9.983533e-01	9.983413e-01	9.983270e-01	9.983096e-01	9.982911e-01	9.982642e-01	9.982320e-01	9.981990e-01	9.981627e-01	9.981275e-01	9.980890e-01	9.980474e-01	9.980018e-01	9.979518e-01	9.978971e-01	9.978379e-01	9.977741e-01	9.977052e-01	9.976309e-01	9.975501e-01	9.974618e-01	9.973634e-01	9.972536e-01	9.971303e-01	9.969907e-01	9.968327e-01	9.966530e-01	9.964459e-01	9.962001e-01	9.958943e-01	9.954952e-01	9.949524e-01	9.942119e-01	9.932241e-01	9.919530e-01	9.904210e-01	9.888668e-01	9.877635e-01	9.873243e-01	9.872497e-01	9.873178e-01	9.878079e-01	9.891555e-01	9.916480e-01	9.952581e-01	9.997390e-01	1.004868e+00	1.010458e+00	1.015946e+00	1.020144e+00	1.022156e+00	1.022576e+00	1.022512e+00	1.021571e+00	1.018598e+00	1.013135e+00	1.006720e+00	1.001827e+00	9.992999e-01	9.983278e-01	9.980081e-01	9.978982e-01	9.978433e-01	9.977907e-01	9.977144e-01	9.976066e-01	9.974645e-01	9.972894e-01	9.971163e-01	9.970634e-01	9.975595e-01	9.995605e-01	1.003822e+00	1.009285e+00	1.013370e+00	1.014602e+00	1.013779e+00	1.012598e+00	1.011386e+00	1.008919e+00	1.004640e+00	9.995190e-01	9.950503e-01	9.926108e-01	9.905700e-01	9.984892e-01	9.984874e-01	9.984930e-01	9.984908e-01	9.984886e-01	9.984856e-01	9.984793e-01	9.984677e-01	9.984536e-01	9.984407e-01	9.984281e-01	9.984149e-01	9.984009e-01	9.983875e-01	9.983746e-01	9.983621e-01	9.983484e-01	9.983348e-01	9.983199e-01	9.983016e-01	9.982821e-01	9.982541e-01	9.982229e-01	9.981892e-01	9.981531e-01	9.981171e-01	9.980782e-01	9.980358e-01	9.979894e-01	9.979384e-01	9.978827e-01	9.978227e-01	9.977585e-01	9.976893e-01	9.976148e-01	9.975332e-01	9.974435e-01	9.973435e-01	9.972312e-01	9.971047e-01	9.969618e-01	9.968000e-01	9.966156e-01	9.964013e-01	9.961431e-01	9.958167e-01	9.953851e-01	9.948010e-01	9.940123e-01	9.929683e-01	9.916364e-01	9.900915e-01	9.886736e-01	9.878246e-01	9.875571e-01	9.875331e-01	9.876693e-01	9.882880e-01	9.897830e-01	9.923565e-01	9.959336e-01	1.000320e+00	1.005381e+00	1.010912e+00	1.016192e+00	1.019985e+00	1.021646e+00	1.021949e+00	1.021840e+00	1.020827e+00	1.017860e+00	1.012691e+00	1.006762e+00	1.002132e+00	9.995466e-01	9.984340e-01	9.980283e-01	9.978821e-01	9.978124e-01	9.977534e-01	9.976759e-01	9.975703e-01	9.974301e-01	9.972590e-01	9.970972e-01	9.970881e-01	9.976865e-01	9.997178e-01	1.003675e+00	1.008600e+00	1.012340e+00	1.013540e+00	1.012898e+00	1.011993e+00	1.011139e+00	1.009114e+00	1.005245e+00	1.000440e+00	9.962051e-01	9.939005e-01	9.920129e-01	9.984806e-01	9.984822e-01	9.984853e-01	9.984833e-01	9.984789e-01	9.984739e-01	9.984676e-01	9.984571e-01	9.984443e-01	9.984320e-01	9.984197e-01	9.984070e-01	9.983940e-01	9.983812e-01	9.983687e-01	9.983552e-01	9.983418e-01	9.983271e-01	9.983111e-01	9.982944e-01	9.982730e-01	9.982448e-01	9.982132e-01	9.981781e-01	9.981442e-01	9.981068e-01	9.980669e-01	9.980231e-01	9.979753e-01	9.979232e-01	9.978668e-01	9.978062e-01	9.977416e-01	9.976713e-01	9.975959e-01	9.975131e-01	9.974217e-01	9.973196e-01	9.972045e-01	9.970746e-01	9.969278e-01	9.967616e-01	9.965713e-01	9.963476e-01	9.960734e-01	9.957208e-01	9.952512e-01	9.946176e-01	9.937691e-01	9.926533e-01	9.912570e-01	9.897397e-01	9.885224e-01	9.879516e-01	9.878310e-01	9.878483e-01	9.880772e-01	9.888583e-01	9.905139e-01	9.931606e-01	9.966965e-01	1.000997e+00	1.005988e+00	1.011400e+00	1.016389e+00	1.019735e+00	1.021054e+00	1.021255e+00	1.021092e+00	1.019989e+00	1.017039e+00	1.012200e+00	1.006793e+00	1.002459e+00	9.998304e-01	9.985650e-01	9.980562e-01	9.978652e-01	9.977777e-01	9.977106e-01	9.976308e-01	9.975284e-01	9.973899e-01	9.972234e-01	9.970768e-01	9.971238e-01	9.978317e-01	9.998686e-01	1.003479e+00	1.007819e+00	1.011162e+00	1.012353e+00	1.011976e+00	1.011380e+00	1.010847e+00	1.009244e+00	1.005856e+00	1.001487e+00	9.975528e-01	9.953878e-01	9.936428e-01	9.984718e-01	9.984752e-01	9.984750e-01	9.984743e-01	9.984688e-01	9.984632e-01	9.984565e-01	9.984471e-01	9.984352e-01	9.984234e-01	9.984113e-01	9.983982e-01	9.983855e-01	9.983724e-01	9.983595e-01	9.983460e-01	9.983318e-01	9.983173e-01	9.983003e-01	9.982819e-01	9.982607e-01	9.982327e-01	9.982007e-01	9.981689e-01	9.981332e-01	9.980958e-01	9.980545e-01	9.980094e-01	9.979605e-01	9.979075e-01	9.978505e-01	9.977892e-01	9.977236e-01	9.976517e-01	9.975745e-01	9.974896e-01	9.973957e-01	9.972908e-01	9.971724e-01	9.970386e-01	9.968874e-01	9.967161e-01	9.965187e-01	9.962834e-01	9.959895e-01	9.956062e-01	9.950923e-01	9.944004e-01	9.934773e-01	9.922745e-01	9.908213e-01	9.893896e-01	9.884564e-01	9.881475e-01	9.881251e-01	9.881948e-01	9.885594e-01	9.895259e-01	9.913438e-01	9.940535e-01	9.975483e-01	1.001766e+00	1.006660e+00	1.011889e+00	1.016509e+00	1.019384e+00	1.020379e+00	1.020491e+00	1.020272e+00	1.019066e+00	1.016160e+00	1.011687e+00	1.006821e+00	1.002799e+00	1.000143e+00	9.987186e-01	9.980917e-01	9.978468e-01	9.977387e-01	9.976623e-01	9.975795e-01	9.974785e-01	9.973430e-01	9.971815e-01	9.970529e-01	9.971652e-01	9.979837e-01	1.000001e+00	1.003233e+00	1.006953e+00	1.009860e+00	1.011066e+00	1.011037e+00	1.010769e+00	1.010502e+00	1.009280e+00	1.006474e+00	1.002643e+00	9.990717e-01	9.970686e-01	9.954603e-01	9.984608e-01	9.984647e-01	9.984630e-01	9.984639e-01	9.984577e-01	9.984519e-01	9.984448e-01	9.984364e-01	9.984256e-01	9.984146e-01	9.984028e-01	9.983902e-01	9.983766e-01	9.983632e-01	9.983494e-01	9.983354e-01	9.983207e-01	9.983049e-01	9.982873e-01	9.982675e-01	9.982450e-01	9.982176e-01	9.981878e-01	9.981551e-01	9.981199e-01	9.980816e-01	9.980394e-01	9.979935e-01	9.979440e-01	9.978909e-01	9.978334e-01	9.977715e-01	9.977049e-01	9.976310e-01	9.975513e-01	9.974634e-01	9.973661e-01	9.972573e-01	9.971347e-01	9.969962e-01	9.968398e-01	9.966621e-01	9.964560e-01	9.962062e-01	9.958888e-01	9.954689e-01	9.949031e-01	9.941406e-01	9.931249e-01	9.918239e-01	9.903414e-01	9.890916e-01	9.885141e-01	9.884075e-01	9.884282e-01	9.885931e-01	9.891311e-01	9.902992e-01	9.922689e-01	9.950306e-01	9.984888e-01	1.002616e+00	1.007372e+00	1.012345e+00	1.016523e+00	1.018907e+00	1.019621e+00	1.019668e+00	1.019372e+00	1.018074e+00	1.015246e+00	1.011179e+00	1.006855e+00	1.003146e+00	1.000476e+00	9.988909e-01	9.981343e-01	9.978276e-01	9.976954e-01	9.976087e-01	9.975221e-01	9.974219e-01	9.972878e-01	9.971297e-01	9.970204e-01	9.972043e-01	9.981305e-01	1.000103e+00	1.002931e+00	1.006016e+00	1.008466e+00	1.009735e+00	1.010138e+00	1.010172e+00	1.010070e+00	1.009239e+00	1.007088e+00	1.003879e+00	1.000737e+00	9.989351e-01	9.974663e-01	9.984483e-01	9.984516e-01	9.984497e-01	9.984520e-01	9.984455e-01	9.984392e-01	9.984318e-01	9.984248e-01	9.984155e-01	9.984048e-01	9.983939e-01	9.983812e-01	9.983676e-01	9.983534e-01	9.983394e-01	9.983251e-01	9.983101e-01	9.982936e-01	9.982753e-01	9.982538e-01	9.982299e-01	9.982030e-01	9.981729e-01	9.981397e-01	9.981037e-01	9.980644e-01	9.980213e-01	9.979746e-01	9.979247e-01	9.978712e-01	9.978137e-01	9.977515e-01	9.976836e-01	9.976082e-01	9.975257e-01	9.974344e-01	9.973330e-01	9.972195e-01	9.970918e-01	9.969477e-01	9.967850e-01	9.965995e-01	9.963818e-01	9.961139e-01	9.957680e-01	9.953046e-01	9.946756e-01	9.938262e-01	9.926973e-01	9.912887e-01	9.898572e-01	9.889350e-01	9.886721e-01	9.886734e-01	9.887556e-01	9.890659e-01	9.898085e-01	9.911833e-01	9.932871e-01	9.960893e-01	9.995147e-01	1.003536e+00	1.008095e+00	1.012730e+00	1.016397e+00	1.018308e+00	1.018782e+00	1.018782e+00	1.018398e+00	1.017026e+00	1.014326e+00	1.010697e+00	1.006901e+00	1.003496e+00	1.000820e+00	9.990758e-01	9.981818e-01	9.978075e-01	9.976487e-01	9.975509e-01	9.974596e-01	9.973588e-01	9.972241e-01	9.970665e-01	9.969756e-01	9.972322e-01	9.982558e-01	1.000156e+00	1.002573e+00	1.005019e+00	1.007035e+00	1.008464e+00	1.009306e+00	1.009550e+00	1.009560e+00	1.009141e+00	1.007677e+00	1.005163e+00	1.002522e+00	1.000971e+00	9.996452e-01	9.984343e-01	9.984369e-01	9.984348e-01	9.984377e-01	9.984313e-01	9.984251e-01	9.984181e-01	9.984122e-01	9.984043e-01	9.983947e-01	9.983838e-01	9.983716e-01	9.983575e-01	9.983423e-01	9.983284e-01	9.983137e-01	9.982978e-01	9.982802e-01	9.982599e-01	9.982379e-01	9.982130e-01	9.981856e-01	9.981553e-01	9.981222e-01	9.980856e-01	9.980455e-01	9.980015e-01	9.979538e-01	9.979029e-01	9.978482e-01	9.977903e-01	9.977275e-01	9.976579e-01	9.975810e-01	9.974959e-01	9.974010e-01	9.972953e-01	9.971769e-01	9.970437e-01	9.968935e-01	9.967238e-01	9.965294e-01	9.962970e-01	9.960069e-01	9.956250e-01	9.951078e-01	9.944014e-01	9.934411e-01	9.921729e-01	9.906827e-01	9.894492e-01	9.889560e-01	9.888953e-01	9.889390e-01	9.891347e-01	9.896320e-01	9.906030e-01	9.921791e-01	9.943968e-01	9.972241e-01	1.000614e+00	1.004515e+00	1.008799e+00	1.012995e+00	1.016135e+00	1.017583e+00	1.017876e+00	1.017826e+00	1.017358e+00	1.015942e+00	1.013429e+00	1.010259e+00	1.006965e+00	1.003841e+00	1.001163e+00	9.992637e-01	9.982302e-01	9.977849e-01	9.975987e-01	9.974896e-01	9.973933e-01	9.972891e-01	9.971505e-01	9.969903e-01	9.969131e-01	9.972381e-01	9.983422e-01	1.000140e+00	1.002140e+00	1.003980e+00	1.005669e+00	1.007346e+00	1.008495e+00	1.008867e+00	1.009029e+00	1.009007e+00	1.008220e+00	1.006458e+00	1.004397e+00	1.003148e+00	1.001967e+00	9.984205e-01	9.984211e-01	9.984194e-01	9.984214e-01	9.984156e-01	9.984102e-01	9.984039e-01	9.983991e-01	9.983922e-01	9.983829e-01	9.983727e-01	9.983605e-01	9.983459e-01	9.983301e-01	9.983150e-01	9.983003e-01	9.982840e-01	9.982660e-01	9.982454e-01	9.982220e-01	9.981956e-01	9.981679e-01	9.981375e-01	9.981038e-01	9.980665e-01	9.980255e-01	9.979805e-01	9.979313e-01	9.978790e-01	9.978240e-01	9.977639e-01	9.976992e-01	9.976279e-01	9.975487e-01	9.974604e-01	9.973615e-01	9.972511e-01	9.971274e-01	9.969887e-01	9.968329e-01	9.966565e-01	9.964508e-01	9.962023e-01	9.958832e-01	9.954559e-01	9.948713e-01	9.940669e-01	9.929616e-01	9.915289e-01	9.900816e-01	9.892574e-01	9.890844e-01	9.891079e-01	9.892346e-01	9.895924e-01	9.903117e-01	9.915200e-01	9.932834e-01	9.955946e-01	9.984292e-01	1.001767e+00	1.005521e+00	1.009445e+00	1.013081e+00	1.015671e+00	1.016744e+00	1.016903e+00	1.016807e+00	1.016264e+00	1.014851e+00	1.012587e+00	1.009887e+00	1.007053e+00	1.004178e+00	1.001493e+00	9.994446e-01	9.982734e-01	9.977575e-01	9.975435e-01	9.974232e-01	9.973210e-01	9.972104e-01	9.970649e-01	9.968979e-01	9.968291e-01	9.972063e-01	9.983732e-01	1.000028e+00	1.001602e+00	1.002953e+00	1.004528e+00	1.006382e+00	1.007637e+00	1.008161e+00	1.008509e+00	1.008854e+00	1.008711e+00	1.007718e+00	1.006322e+00	1.005429e+00	1.004402e+00	9.984075e-01	9.984048e-01	9.984032e-01	9.984046e-01	9.983995e-01	9.983949e-01	9.983890e-01	9.983851e-01	9.983792e-01	9.983700e-01	9.983598e-01	9.983483e-01	9.983339e-01	9.983171e-01	9.983015e-01	9.982849e-01	9.982681e-01	9.982491e-01	9.982277e-01	9.982030e-01	9.981752e-01	9.981472e-01	9.981168e-01	9.980829e-01	9.980454e-01	9.980039e-01	9.979576e-01	9.979084e-01	9.978552e-01	9.977972e-01	9.977354e-01	9.976684e-01	9.975944e-01	9.975120e-01	9.974198e-01	9.973161e-01	9.971998e-01	9.970703e-01	9.969259e-01	9.967646e-01	9.965809e-01	9.963633e-01	9.960918e-01	9.957357e-01	9.952518e-01	9.945824e-01	9.936448e-01	9.923480e-01	9.908007e-01	9.896324e-01	9.892737e-01	9.892529e-01	9.893300e-01	9.895932e-01	9.901552e-01	9.911205e-01	9.925622e-01	9.944912e-01	9.968749e-01	9.996972e-01	1.002950e+00	1.006504e+00	1.010000e+00	1.012976e+00	1.015019e+00	1.015801e+00	1.015865e+00	1.015728e+00	1.015134e+00	1.013786e+00	1.011830e+00	1.009591e+00	1.007166e+00	1.004503e+00	1.001801e+00	9.996101e-01	9.983082e-01	9.977242e-01	9.974825e-01	9.973499e-01	9.972404e-01	9.971213e-01	9.969638e-01	9.967823e-01	9.967096e-01	9.971240e-01	9.983083e-01	9.997878e-01	1.000979e+00	1.002091e+00	1.003707e+00	1.005491e+00	1.006761e+00	1.007457e+00	1.008025e+00	1.008720e+00	1.009143e+00	1.008911e+00	1.008247e+00	1.007755e+00	1.006912e+00	9.983947e-01	9.983884e-01	9.983876e-01	9.983876e-01	9.983830e-01	9.983785e-01	9.983733e-01	9.983705e-01	9.983644e-01	9.983559e-01	9.983453e-01	9.983341e-01	9.983198e-01	9.983028e-01	9.982851e-01	9.982673e-01	9.982500e-01	9.982303e-01	9.982087