# vtk DataFile Version 3.0
vtk output
ASCII
DATASET STRUCTURED_GRID
DIMENSIONS 101 101 1
POINTS 10201 double
0.000000e+00	0.000000e+00	0.0	1.000000e-02	0.000000e+00	0.0	2.000000e-02	0.000000e+00	0.0	3.000000e-02	0.000000e+00	0.0	4.000000e-02	0.000000e+00	0.0	5.000000e-02	0.000000e+00	0.0	6.000000e-02	0.000000e+00	0.0	7.000000e-02	0.000000e+00	0.0	8.000000e-02	0.000000e+00	0.0	9.000000e-02	0.000000e+00	0.0	1.000000e-01	0.000000e+00	0.0	1.100000e-01	0.000000e+00	0.0	1.200000e-01	0.000000e+00	0.0	1.300000e-01	0.000000e+00	0.0	1.400000e-01	0.000000e+00	0.0	1.500000e-01	0.000000e+00	0.0	1.600000e-01	0.000000e+00	0.0	1.700000e-01	0.000000e+00	0.0	1.800000e-01	0.000000e+00	0.0	1.900000e-01	0.000000e+00	0.0	2.000000e-01	0.000000e+00	0.0	2.100000e-01	0.000000e+00	0.0	2.200000e-01	0.000000e+00	0.0	2.300000e-01	0.000000e+00	0.0	2.400000e-01	0.000000e+00	0.0	2.500000e-01	0.000000e+00	0.0	2.600000e-01	0.000000e+00	0.0	2.700000e-01	0.000000e+00	0.0	2.800000e-01	0.000000e+00	0.0	2.900000e-01	0.000000e+00	0.0	3.000000e-01	0.000000e+00	0.0	3.100000e-01	0.000000e+00	0.0	3.200000e-01	0.000000e+00	0.0	3.300000e-01	0.000000e+00	0.0	3.400000e-01	0.000000e+00	0.0	3.500000e-01	0.000000e+00	0.0	3.600000e-01	0.000000e+00	0.0	3.700000e-01	0.000000e+00	0.0	3.800000e-01	0.000000e+00	0.0	3.900000e-01	0.000000e+00	0.0	4.000000e-01	0.000000e+00	0.0	4.100000e-01	0.000000e+00	0.0	4.200000e-01	0.000000e+00	0.0	4.300000e-01	0.000000e+00	0.0	4.400000e-01	0.000000e+00	0.0	4.500000e-01	0.000000e+00	0.0	4.600000e-01	0.000000e+00	0.0	4.700000e-01	0.000000e+00	0.0	4.800000e-01	0.000000e+00	0.0	4.900000e-01	0.000000e+00	0.0	5.000000e-01	0.000000e+00	0.0	5.100000e-01	0.000000e+00	0.0	5.200000e-01	0.000000e+00	0.0	5.300000e-01	0.000000e+00	0.0	5.400000e-01	0.000000e+00	0.0	5.500000e-01	0.000000e+00	0.0	5.600000e-01	0.000000e+00	0.0	5.700000e-01	0.000000e+00	0.0	5.800000e-01	0.000000e+00	0.0	5.900000e-01	0.000000e+00	0.0	6.000000e-01	0.000000e+00	0.0	6.100000e-01	0.000000e+00	0.0	6.200000e-01	0.000000e+00	0.0	6.300000e-01	0.000000e+00	0.0	6.400000e-01	0.000000e+00	0.0	6.500000e-01	0.000000e+00	0.0	6.600000e-01	0.000000e+00	0.0	6.700000e-01	0.000000e+00	0.0	6.800000e-01	0.000000e+00	0.0	6.900000e-01	0.000000e+00	0.0	7.000000e-01	0.000000e+00	0.0	7.100000e-01	0.000000e+00	0.0	7.200000e-01	0.000000e+00	0.0	7.300000e-01	0.000000e+00	0.0	7.400000e-01	0.000000e+00	0.0	7.500000e-01	0.000000e+00	0.0	7.600000e-01	0.000000e+00	0.0	7.700000e-01	0.000000e+00	0.0	7.800000e-01	0.000000e+00	0.0	7.900000e-01	0.000000e+00	0.0	8.000000e-01	0.000000e+00	0.0	8.100000e-01	0.000000e+00	0.0	8.200000e-01	0.000000e+00	0.0	8.300000e-01	0.000000e+00	0.0	8.400000e-01	0.000000e+00	0.0	8.500000e-01	0.000000e+00	0.0	8.600000e-01	0.000000e+00	0.0	8.700000e-01	0.000000e+00	0.0	8.800000e-01	0.000000e+00	0.0	8.900000e-01	0.000000e+00	0.0	9.000000e-01	0.000000e+00	0.0	9.100000e-01	0.000000e+00	0.0	9.200000e-01	0.000000e+00	0.0	9.300000e-01	0.000000e+00	0.0	9.400000e-01	0.000000e+00	0.0	9.500000e-01	0.000000e+00	0.0	9.600000e-01	0.000000e+00	0.0	9.700000e-01	0.000000e+00	0.0	9.800000e-01	0.000000e+00	0.0	9.900000e-01	0.000000e+00	0.0	1.000000e+00	0.000000e+00	0.0	0.000000e+00	1.000000e-02	0.0	1.000000e-02	1.000000e-02	0.0	2.000000e-02	1.000000e-02	0.0	3.000000e-02	1.000000e-02	0.0	4.000000e-02	1.000000e-02	0.0	5.000000e-02	1.000000e-02	0.0	6.000000e-02	1.000000e-02	0.0	7.000000e-02	1.000000e-02	0.0	8.000000e-02	1.000000e-02	0.0	9.000000e-02	1.000000e-02	0.0	1.000000e-01	1.000000e-02	0.0	1.100000e-01	1.000000e-02	0.0	1.200000e-01	1.000000e-02	0.0	1.300000e-01	1.000000e-02	0.0	1.400000e-01	1.000000e-02	0.0	1.500000e-01	1.000000e-02	0.0	1.600000e-01	1.000000e-02	0.0	1.700000e-01	1.000000e-02	0.0	1.800000e-01	1.000000e-02	0.0	1.900000e-01	1.000000e-02	0.0	2.000000e-01	1.000000e-02	0.0	2.100000e-01	1.000000e-02	0.0	2.200000e-01	1.000000e-02	0.0	2.300000e-01	1.000000e-02	0.0	2.400000e-01	1.000000e-02	0.0	2.500000e-01	1.000000e-02	0.0	2.600000e-01	1.000000e-02	0.0	2.700000e-01	1.000000e-02	0.0	2.800000e-01	1.000000e-02	0.0	2.900000e-01	1.000000e-02	0.0	3.000000e-01	1.000000e-02	0.0	3.100000e-01	1.000000e-02	0.0	3.200000e-01	1.000000e-02	0.0	3.300000e-01	1.000000e-02	0.0	3.400000e-01	1.000000e-02	0.0	3.500000e-01	1.000000e-02	0.0	3.600000e-01	1.000000e-02	0.0	3.700000e-01	1.000000e-02	0.0	3.800000e-01	1.000000e-02	0.0	3.900000e-01	1.000000e-02	0.0	4.000000e-01	1.000000e-02	0.0	4.100000e-01	1.000000e-02	0.0	4.200000e-01	1.000000e-02	0.0	4.300000e-01	1.000000e-02	0.0	4.400000e-01	1.000000e-02	0.0	4.500000e-01	1.000000e-02	0.0	4.600000e-01	1.000000e-02	0.0	4.700000e-01	1.000000e-02	0.0	4.800000e-01	1.000000e-02	0.0	4.900000e-01	1.000000e-02	0.0	5.000000e-01	1.000000e-02	0.0	5.100000e-01	1.000000e-02	0.0	5.200000e-01	1.000000e-02	0.0	5.300000e-01	1.000000e-02	0.0	5.400000e-01	1.000000e-02	0.0	5.500000e-01	1.000000e-02	0.0	5.600000e-01	1.000000e-02	0.0	5.700000e-01	1.000000e-02	0.0	5.800000e-01	1.000000e-02	0.0	5.900000e-01	1.000000e-02	0.0	6.000000e-01	1.000000e-02	0.0	6.100000e-01	1.000000e-02	0.0	6.200000e-01	1.000000e-02	0.0	6.300000e-01	1.000000e-02	0.0	6.400000e-01	1.000000e-02	0.0	6.500000e-01	1.000000e-02	0.0	6.600000e-01	1.000000e-02	0.0	6.700000e-01	1.000000e-02	0.0	6.800000e-01	1.000000e-02	0.0	6.900000e-01	1.000000e-02	0.0	7.000000e-01	1.000000e-02	0.0	7.100000e-01	1.000000e-02	0.0	7.200000e-01	1.000000e-02	0.0	7.300000e-01	1.000000e-02	0.0	7.400000e-01	1.000000e-02	0.0	7.500000e-01	1.000000e-02	0.0	7.600000e-01	1.000000e-02	0.0	7.700000e-01	1.000000e-02	0.0	7.800000e-01	1.000000e-02	0.0	7.900000e-01	1.000000e-02	0.0	8.000000e-01	1.000000e-02	0.0	8.100000e-01	1.000000e-02	0.0	8.200000e-01	1.000000e-02	0.0	8.300000e-01	1.000000e-02	0.0	8.400000e-01	1.000000e-02	0.0	8.500000e-01	1.000000e-02	0.0	8.600000e-01	1.000000e-02	0.0	8.700000e-01	1.000000e-02	0.0	8.800000e-01	1.000000e-02	0.0	8.900000e-01	1.000000e-02	0.0	9.000000e-01	1.000000e-02	0.0	9.100000e-01	1.000000e-02	0.0	9.200000e-01	1.000000e-02	0.0	9.300000e-01	1.000000e-02	0.0	9.400000e-01	1.000000e-02	0.0	9.500000e-01	1.000000e-02	0.0	9.600000e-01	1.000000e-02	0.0	9.700000e-01	1.000000e-02	0.0	9.800000e-01	1.000000e-02	0.0	9.900000e-01	1.000000e-02	0.0	1.000000e+00	1.000000e-02	0.0	0.000000e+00	2.000000e-02	0.0	1.000000e-02	2.000000e-02	0.0	2.000000e-02	2.000000e-02	0.0	3.000000e-02	2.000000e-02	0.0	4.000000e-02	2.000000e-02	0.0	5.000000e-02	2.000000e-02	0.0	6.000000e-02	2.000000e-02	0.0	7.000000e-02	2.000000e-02	0.0	8.000000e-02	2.000000e-02	0.0	9.000000e-02	2.000000e-02	0.0	1.000000e-01	2.000000e-02	0.0	1.100000e-01	2.000000e-02	0.0	1.200000e-01	2.000000e-02	0.0	1.300000e-01	2.000000e-02	0.0	1.400000e-01	2.000000e-02	0.0	1.500000e-01	2.000000e-02	0.0	1.600000e-01	2.000000e-02	0.0	1.700000e-01	2.000000e-02	0.0	1.800000e-01	2.000000e-02	0.0	1.900000e-01	2.000000e-02	0.0	2.000000e-01	2.000000e-02	0.0	2.100000e-01	2.000000e-02	0.0	2.200000e-01	2.000000e-02	0.0	2.300000e-01	2.000000e-02	0.0	2.400000e-01	2.000000e-02	0.0	2.500000e-01	2.000000e-02	0.0	2.600000e-01	2.000000e-02	0.0	2.700000e-01	2.000000e-02	0.0	2.800000e-01	2.000000e-02	0.0	2.900000e-01	2.000000e-02	0.0	3.000000e-01	2.000000e-02	0.0	3.100000e-01	2.000000e-02	0.0	3.200000e-01	2.000000e-02	0.0	3.300000e-01	2.000000e-02	0.0	3.400000e-01	2.000000e-02	0.0	3.500000e-01	2.000000e-02	0.0	3.600000e-01	2.000000e-02	0.0	3.700000e-01	2.000000e-02	0.0	3.800000e-01	2.000000e-02	0.0	3.900000e-01	2.000000e-02	0.0	4.000000e-01	2.000000e-02	0.0	4.100000e-01	2.000000e-02	0.0	4.200000e-01	2.000000e-02	0.0	4.300000e-01	2.000000e-02	0.0	4.400000e-01	2.000000e-02	0.0	4.500000e-01	2.000000e-02	0.0	4.600000e-01	2.000000e-02	0.0	4.700000e-01	2.000000e-02	0.0	4.800000e-01	2.000000e-02	0.0	4.900000e-01	2.000000e-02	0.0	5.000000e-01	2.000000e-02	0.0	5.100000e-01	2.000000e-02	0.0	5.200000e-01	2.000000e-02	0.0	5.300000e-01	2.000000e-02	0.0	5.400000e-01	2.000000e-02	0.0	5.500000e-01	2.000000e-02	0.0	5.600000e-01	2.000000e-02	0.0	5.700000e-01	2.000000e-02	0.0	5.800000e-01	2.000000e-02	0.0	5.900000e-01	2.000000e-02	0.0	6.000000e-01	2.000000e-02	0.0	6.100000e-01	2.000000e-02	0.0	6.200000e-01	2.000000e-02	0.0	6.300000e-01	2.000000e-02	0.0	6.400000e-01	2.000000e-02	0.0	6.500000e-01	2.000000e-02	0.0	6.600000e-01	2.000000e-02	0.0	6.700000e-01	2.000000e-02	0.0	6.800000e-01	2.000000e-02	0.0	6.900000e-01	2.000000e-02	0.0	7.000000e-01	2.000000e-02	0.0	7.100000e-01	2.000000e-02	0.0	7.200000e-01	2.000000e-02	0.0	7.300000e-01	2.000000e-02	0.0	7.400000e-01	2.000000e-02	0.0	7.500000e-01	2.000000e-02	0.0	7.600000e-01	2.000000e-02	0.0	7.700000e-01	2.000000e-02	0.0	7.800000e-01	2.000000e-02	0.0	7.900000e-01	2.000000e-02	0.0	8.000000e-01	2.000000e-02	0.0	8.100000e-01	2.000000e-02	0.0	8.200000e-01	2.000000e-02	0.0	8.300000e-01	2.000000e-02	0.0	8.400000e-01	2.000000e-02	0.0	8.500000e-01	2.000000e-02	0.0	8.600000e-01	2.000000e-02	0.0	8.700000e-01	2.000000e-02	0.0	8.800000e-01	2.000000e-02	0.0	8.900000e-01	2.000000e-02	0.0	9.000000e-01	2.000000e-02	0.0	9.100000e-01	2.000000e-02	0.0	9.200000e-01	2.000000e-02	0.0	9.300000e-01	2.000000e-02	0.0	9.400000e-01	2.000000e-02	0.0	9.500000e-01	2.000000e-02	0.0	9.600000e-01	2.000000e-02	0.0	9.700000e-01	2.000000e-02	0.0	9.800000e-01	2.000000e-02	0.0	9.900000e-01	2.000000e-02	0.0	1.000000e+00	2.000000e-02	0.0	0.000000e+00	3.000000e-02	0.0	1.000000e-02	3.000000e-02	0.0	2.000000e-02	3.000000e-02	0.0	3.000000e-02	3.000000e-02	0.0	4.000000e-02	3.000000e-02	0.0	5.000000e-02	3.000000e-02	0.0	6.000000e-02	3.000000e-02	0.0	7.000000e-02	3.000000e-02	0.0	8.000000e-02	3.000000e-02	0.0	9.000000e-02	3.000000e-02	0.0	1.000000e-01	3.000000e-02	0.0	1.100000e-01	3.000000e-02	0.0	1.200000e-01	3.000000e-02	0.0	1.300000e-01	3.000000e-02	0.0	1.400000e-01	3.000000e-02	0.0	1.500000e-01	3.000000e-02	0.0	1.600000e-01	3.000000e-02	0.0	1.700000e-01	3.000000e-02	0.0	1.800000e-01	3.000000e-02	0.0	1.900000e-01	3.000000e-02	0.0	2.000000e-01	3.000000e-02	0.0	2.100000e-01	3.000000e-02	0.0	2.200000e-01	3.000000e-02	0.0	2.300000e-01	3.000000e-02	0.0	2.400000e-01	3.000000e-02	0.0	2.500000e-01	3.000000e-02	0.0	2.600000e-01	3.000000
[...]
POINT_DATA 10201

SCALARS Height double 1
LOOKUP_TABLE default
9.994246e-01	9.994301e-01	9.994393e-01	9.994351e-01	9.994324e-01	9.994278e-01	9.994223e-01	9.994153e-01	9.994109e-01	9.994082e-01	9.994060e-01	9.994033e-01	9.994003e-01	9.993970e-01	9.993943e-01	9.993929e-01	9.993964e-01	9.994067e-01	9.994129e-01	9.994161e-01	9.994178e-01	9.994144e-01	9.994071e-01	9.993961e-01	9.993793e-01	9.993685e-01	9.993631e-01	9.993596e-01	9.993572e-01	9.993547e-01	9.993515e-01	9.993469e-01	9.993410e-01	9.993346e-01	9.993286e-01	9.993238e-01	9.993217e-01	9.993261e-01	9.993487e-01	9.994337e-01	9.997220e-01	1.000565e+00	1.002572e+00	1.006202e+00	1.010843e+00	1.014820e+00	1.017010e+00	1.017654e+00	1.017603e+00	1.016956e+00	1.015393e+00	1.012681e+00	1.009026e+00	1.004977e+00	1.001016e+00	9.974564e-01	9.945104e-01	9.923238e-01	9.909559e-01	9.903013e-01	9.901134e-01	9.901278e-01	9.903197e-01	9.907799e-01	9.915808e-01	9.926381e-01	9.937210e-01	9.946440e-01	9.953474e-01	9.958544e-01	9.962171e-01	9.964798e-01	9.966704e-01	9.968004e-01	9.968735e-01	9.968961e-01	9.968831e-01	9.968529e-01	9.968258e-01	9.968451e-01	9.970362e-01	9.977333e-01	9.995450e-01	1.003025e+00	1.007710e+00	1.011951e+00	1.014380e+00	1.015088e+00	1.014943e+00	1.014194e+00	1.012508e+00	1.009616e+00	1.005621e+00	1.000933e+00	9.960082e-01	9.912938e-01	9.872244e-01	9.841799e-01	9.822719e-01	9.814249e-01	9.810818e-01	9.994273e-01	9.994259e-01	9.994341e-01	9.994288e-01	9.994250e-01	9.994208e-01	9.994164e-01	9.994121e-01	9.994120e-01	9.994121e-01	9.994117e-01	9.994104e-01	9.994077e-01	9.994046e-01	9.994017e-01	9.993996e-01	9.993938e-01	9.993966e-01	9.993957e-01	9.993949e-01	9.993955e-01	9.993925e-01	9.993911e-01	9.993853e-01	9.993773e-01	9.993759e-01	9.993715e-01	9.993679e-01	9.993649e-01	9.993616e-01	9.993574e-01	9.993519e-01	9.993450e-01	9.993369e-01	9.993286e-01	9.993205e-01	9.993142e-01	9.993125e-01	9.993243e-01	9.993840e-01	9.996174e-01	1.000397e+00	1.002453e+00	1.006294e+00	1.011072e+00	1.014965e+00	1.017025e+00	1.017636e+00	1.017653e+00	1.017169e+00	1.015541e+00	1.012708e+00	1.009011e+00	1.004956e+00	1.000984e+00	9.974122e-01	9.944543e-01	9.922748e-01	9.909259e-01	9.902908e-01	9.901065e-01	9.900968e-01	9.902317e-01	9.907059e-01	9.915553e-01	9.926275e-01	9.937063e-01	9.946235e-01	9.953231e-01	9.958307e-01	9.961955e-01	9.964609e-01	9.966534e-01	9.967839e-01	9.968561e-01	9.968773e-01	9.968624e-01	9.968293e-01	9.967952e-01	9.967929e-01	9.969331e-01	9.975634e-01	9.994026e-01	1.003086e+00	1.007942e+00	1.012111e+00	1.014407e+00	1.015065e+00	1.014958e+00	1.014379e+00	1.012659e+00	1.009651e+00	1.005599e+00	1.000899e+00	9.959684e-01	9.912368e-01	9.871439e-01	9.840625e-01	9.821811e-01	9.814013e-01	9.810623e-01	9.994163e-01	9.994154e-01	9.994229e-01	9.994191e-01	9.994160e-01	9.994131e-01	9.994109e-01	9.994082e-01	9.994062e-01	9.994062e-01	9.994066e-01	9.994057e-01	9.994028e-01	9.993986e-01	9.993938e-01	9.993893e-01	9.993837e-01	9.993818e-01	9.993836e-01	9.993863e-01	9.993873e-01	9.993838e-01	9.993776e-01	9.993719e-01	9.993656e-01	9.993617e-01	9.993596e-01	9.993573e-01	9.993551e-01	9.993532e-01	9.993509e-01	9.993472e-01	9.993415e-01	9.993342e-01	9.993256e-01	9.993174e-01	9.993101e-01	9.993061e-01	9.993129e-01	9.993615e-01	9.995739e-01	1.000345e+00	1.002467e+00	1.006417e+00	1.011154e+00	1.014888e+00	1.016854e+00	1.017475e+00	1.017513e+00	1.017136e+00	1.015531e+00	1.012604e+00	1.008913e+00	1.004922e+00	1.000998e+00	9.974425e-01	9.945008e-01	9.923424e-01	9.909992e-01	9.903489e-01	9.901471e-01	9.901276e-01	9.902280e-01	9.906930e-01	9.915628e-01	9.926258e-01	9.936767e-01	9.945789e-01	9.952793e-01	9.957942e-01	9.961666e-01	9.964368e-01	9.966304e-01	9.967595e-01	9.968301e-01	9.968513e-01	9.968378e-01	9.968060e-01	9.967708e-01	9.967610e-01	9.968837e-01	9.975038e-01	9.994062e-01	1.003209e+00	1.008055e+00	1.012054e+00	1.014232e+00	1.014888e+00	1.014804e+00	1.014311e+00	1.012648e+00	1.009549e+00	1.005479e+00	1.000829e+00	9.959627e-01	9.912825e-01	9.872117e-01	9.841232e-01	9.822766e-01	9.814993e-01	9.811455e-01	9.994117e-01	9.994101e-01	9.994164e-01	9.994136e-01	9.994121e-01	9.994107e-01	9.994096e-01	9.994076e-01	9.994063e-01	9.994069e-01	9.994075e-01	9.994066e-01	9.994038e-01	9.993997e-01	9.993952e-01	9.993908e-01	9.993846e-01	9.993854e-01	9.993844e-01	9.993854e-01	9.993864e-01	9.993833e-01	9.993799e-01	9.993745e-01	9.993674e-01	9.993632e-01	9.993598e-01	9.993569e-01	9.993546e-01	9.993530e-01	9.993510e-01	9.993477e-01	9.993423e-01	9.993348e-01	9.993256e-01	9.993163e-01	9.993079e-01	9.993023e-01	9.993058e-01	9.993457e-01	9.995420e-01	1.000303e+00	1.002455e+00	1.006463e+00	1.011201e+00	1.014853e+00	1.016744e+00	1.017343e+00	1.017385e+00	1.017078e+00	1.015591e+00	1.012629e+00	1.008891e+00	1.004936e+00	1.001061e+00	9.975257e-01	9.945888e-01	9.924201e-01	9.910643e-01	9.903999e-01	9.901808e-01	9.901538e-01	9.902266e-01	9.906446e-01	9.915145e-01	9.925954e-01	9.936464e-01	9.945421e-01	9.952438e-01	9.957640e-01	9.961422e-01	9.964167e-01	9.966131e-01	9.967438e-01	9.968153e-01	9.968372e-01	9.968243e-01	9.967924e-01	9.967556e-01	9.967397e-01	9.968482e-01	9.974594e-01	9.993927e-01	1.003257e+00	1.008104e+00	1.012028e+00	1.014118e+00	1.014742e+00	1.014657e+00	1.014224e+00	1.012674e+00	1.009556e+00	1.005434e+00	1.000807e+00	9.959900e-01	9.913425e-01	9.872700e-01	9.841866e-01	9.823654e-01	9.815806e-01	9.812135e-01	9.994102e-01	9.994081e-01	9.994148e-01	9.994127e-01	9.994115e-01	9.994108e-01	9.994098e-01	9.994084e-01	9.994075e-01	9.994075e-01	9.994073e-01	9.994058e-01	9.994023e-01	9.993977e-01	9.993932e-01	9.993890e-01	9.993841e-01	9.993850e-01	9.993831e-01	9.993836e-01	9.993846e-01	9.993822e-01	9.993795e-01	9.993747e-01	9.993677e-01	9.993619e-01	9.993577e-01	9.993543e-01	9.993521e-01	9.993509e-01	9.993497e-01	9.993472e-01	9.993424e-01	9.993350e-01	9.993255e-01	9.993152e-01	9.993056e-01	9.992993e-01	9.993014e-01	9.993372e-01	9.995228e-01	1.000273e+00	1.002436e+00	1.006469e+00	1.011193e+00	1.014786e+00	1.016628e+00	1.017211e+00	1.017253e+00	1.016986e+00	1.015629e+00	1.012729e+00	1.008943e+00	1.004988e+00	1.001154e+00	9.976508e-01	9.947145e-01	9.925309e-01	9.911556e-01	9.904719e-01	9.902367e-01	9.901999e-01	9.902530e-01	9.906193e-01	9.914572e-01	9.925495e-01	9.936096e-01	9.945064e-01	9.952104e-01	9.957357e-01	9.961191e-01	9.963980e-01	9.965976e-01	9.967303e-01	9.968026e-01	9.968247e-01	9.968117e-01	9.967795e-01	9.967421e-01	9.967239e-01	9.968261e-01	9.974312e-01	9.993780e-01	1.003270e+00	1.008097e+00	1.011962e+00	1.013992e+00	1.014591e+00	1.014503e+00	1.014094e+00	1.012662e+00	1.009616e+00	1.005448e+00	1.000818e+00	9.960380e-01	9.914174e-01	9.873506e-01	9.842863e-01	9.824914e-01	9.816984e-01	9.813159e-01	9.994108e-01	9.994095e-01	9.994152e-01	9.994132e-01	9.994119e-01	9.994114e-01	9.994110e-01	9.994103e-01	9.994095e-01	9.994094e-01	9.994088e-01	9.994068e-01	9.994029e-01	9.993980e-01	9.993933e-01	9.993896e-01	9.993854e-01	9.993867e-01	9.993852e-01	9.993854e-01	9.993864e-01	9.993846e-01	9.993827e-01	9.993771e-01	9.993703e-01	9.993646e-01	9.993597e-01	9.993563e-01	9.993543e-01	9.993534e-01	9.993523e-01	9.993499e-01	9.993448e-01	9.993364e-01	9.993254e-01	9.993138e-01	9.993039e-01	9.992975e-01	9.992996e-01	9.993336e-01	9.995130e-01	1.000252e+00	1.002412e+00	1.006446e+00	1.011139e+00	1.014688e+00	1.016499e+00	1.017072e+00	1.017116e+00	1.016885e+00	1.015650e+00	1.012867e+00	1.009080e+00	1.005093e+00	1.001278e+00	9.978084e-01	9.948788e-01	9.926789e-01	9.912746e-01	9.905605e-01	9.903082e-01	9.902656e-01	9.903042e-01	9.906153e-01	9.913984e-01	9.924844e-01	9.935586e-01	9.944647e-01	9.951743e-01	9.957070e-01	9.960980e-01	9.963829e-01	9.965859e-01	9.967200e-01	9.967922e-01	9.968138e-01	9.968005e-01	9.967683e-01	9.967309e-01	9.967131e-01	9.968161e-01	9.974200e-01	9.993654e-01	1.003250e+00	1.008048e+00	1.011852e+00	1.013847e+00	1.014438e+00	1.014348e+00	1.013956e+00	1.012628e+00	1.009700e+00	1.005542e+00	1.000880e+00	9.961075e-01	9.915035e-01	9.874459e-01	9.844156e-01	9.826473e-01	9.818484e-01	9.814515e-01	9.994109e-01	9.994096e-01	9.994150e-01	9.994133e-01	9.994121e-01	9.994112e-01	9.994110e-01	9.994103e-01	9.994108e-01	9.994108e-01	9.994103e-01	9.994084e-01	9.994046e-01	9.993997e-01	9.993949e-01	9.993911e-01	9.993868e-01	9.993873e-01	9.993863e-01	9.993864e-01	9.993869e-01	9.993853e-01	9.993842e-01	9.993777e-01	9.993717e-01	9.993672e-01	9.993627e-01	9.993595e-01	9.993576e-01	9.993563e-01	9.993549e-01	9.993512e-01	9.993442e-01	9.993346e-01	9.993231e-01	9.993118e-01	9.993022e-01	9.992969e-01	9.992994e-01	9.993325e-01	9.995093e-01	1.000242e+00	1.002386e+00	1.006390e+00	1.011043e+00	1.014552e+00	1.016348e+00	1.016921e+00	1.016969e+00	1.016766e+00	1.015646e+00	1.013002e+00	1.009263e+00	1.005253e+00	1.001441e+00	9.979950e-01	9.950764e-01	9.928620e-01	9.914251e-01	9.906734e-01	9.903923e-01	9.903423e-01	9.903675e-01	9.906200e-01	9.913335e-01	9.923972e-01	9.934864e-01	9.944077e-01	9.951270e-01	9.956696e-01	9.960711e-01	9.963630e-01	9.965698e-01	9.967051e-01	9.967774e-01	9.967989e-01	9.967859e-01	9.967542e-01	9.967177e-01	9.967027e-01	9.968124e-01	9.974229e-01	9.993576e-01	1.003200e+00	1.007942e+00	1.011699e+00	1.013673e+00	1.014264e+00	1.014177e+00	1.013801e+00	1.012567e+00	1.009774e+00	1.005674e+00	1.000983e+00	9.961908e-01	9.915965e-01	9.875750e-01	9.846037e-01	9.828566e-01	9.820395e-01	9.816270e-01	9.994068e-01	9.994074e-01	9.994128e-01	9.994112e-01	9.994103e-01	9.994097e-01	9.994096e-01	9.994090e-01	9.994098e-01	9.994107e-01	9.994105e-01	9.994090e-01	9.994058e-01	9.994016e-01	9.993970e-01	9.993927e-01	9.993890e-01	9.993861e-01	9.993869e-01	9.993859e-01	9.993862e-01	9.993844e-01	9.993825e-01	9.993768e-01	9.993724e-01	9.993680e-01	9.993641e-01	9.993609e-01	9.993584e-01	9.993563e-01	9.993532e-01	9.993482e-01	9.993409e-01	9.993313e-01	9.993187e-01	9.993082e-01	9.993010e-01	9.992967e-01	9.992993e-01	9.993317e-01	9.995083e-01	1.000238e+00	1.002360e+00	1.006310e+00	1.010902e+00	1.014373e+00	1.016163e+00	1.016747e+00	1.016802e+00	1.016629e+00	1.015616e+00	1.013123e+00	1.009470e+00	1.005465e+00	1.001641e+00	9.982091e-01	9.953034e-01	9.930729e-01	9.915978e-01	9.908043e-01	9.904903e-01	9.904234e-01	9.904347e-01	9.906262e-01	9.912563e-01	9.922832e-01	9.933828e-01	9.943266e-01	9.950633e-01	9.956197e-01	9.960324e-01	9.963327e-01	9.965438e-01	9.966810e-01	9.967545e-01	9.967775e-01	9.967658e-01	9.967352e-01	9.967006e-01	9.966905e-01	9.968118e-01	9.974361e-01	9.993562e-01	1.003127e+00	1.007785e+00	1.011500e+00	1.013463e+00	1.014060e+00	1.013977e+00	1.013617e+00	1.012473e+00	1.009824e+00	1.005813e+00	1.001117e+00	9.962864e-01	9.916954e-01	9.877373e-01	9.848429e-01	9.831101e-01	9.822646e-01	9.818263e-01	9.994022e-01	9.994057e-01	9.994088e-01	9.994085e-01	9.994080e-01	9.994075e-01	9.994076e-01	9.994083e-01	9.994078e-01	9.994089e-01	9.994089e-01	9.994078e-01	9.994052e-01	9.994018e-01	9.993980e-01	9.993941e-01	9.993897e-01	9.993874e-01	9.993854e-01	9.993851e-01	9.993845e-01	9.993831e-01	9.993794e-01	9.993746e-01	9.993719e-01	9.993678e-01	9.993640e-01	9.993604e-01	9.993570e-01	9.993538e-01	9.993498e-01	9.993445e-01	9.993372e-01	9.993271e-01	9.993145e-01	9.993055e-01	9.993004e-01	9.992979e-01	9.993002e-01	9.993316e-01	9.995100e-01	1.000243e+00	1.002340e+00	1.006210e+00	1.010717e+00	1.014154e+00	1.015946e+00	1.016545e+00	1.016611e+00	1.016467e+00	1.015560e+00	1.013232e+00	1.009688e+00	1.005706e+00	1.001876e+00	9.984543e-01	9.955603e-01	9.933125e-01	9.917912e-01	9.909467e-01	9.905950e-01	9.905053e-01	9.905027e-01	9.906352e-01	9.911703e-01	9.921406e-01	9.932465e-01	9.942207e-01	9.949827e-01	9.955562e-01	9.959816e-01	9.962906e-01	9.965073e-01	9.966477e-01	9.967242e-01	9.967499e-01	9.967405e-01	9.967121e-01	9.966805e-01	9.966773e-01	9.968139e-01	9.974574e-01	9.993613e-01	1.003039e+00	1.007587e+00	1.011253e+00	1.013216e+00	1.013825e+00	1.013746e+00	1.013398e+00	1.012342e+00	1.009842e+00	1.005942e+00	1.001259e+00	9.963948e-01	9.918088e-01	9.879270e-01	9.851160e-01	9.833911e-01	9.825104e-01	9.820412e-01	9.993986e-01	9.994030e-01	9.994051e-01	9.994061e-01	9.994061e-01	9.994060e-01	9.994064e-01	9.994075e-01	9.994075e-01	9.994062e-01	9.994062e-01	9.994049e-01	9.994030e-01	9.994002e-01	9.993970e-01	9.993935e-01	9.993895e-01	9.993876e-01	9.993856e-01	9.993835e-01	9.993826e-01	9.993796e-01	9.993779e-01	9.993749e-01	9.993703e-01	9.993669e-01	9.993630e-01	9.993590e-01	9.993551e-01	9.993510e-01	9.993462e-01	9.993404e-01	9.993335e-01	9.993232e-01	9.993117e-01	9.993037e-01	9.993002e-01	9.992993e-01	9.993018e-01	9.993326e-01	9.995152e-01	1.000257e+00	1.002325e+00	1.006092e+00	1.010493e+00	1.013897e+00	1.015702e+00	1.016322e+00	1.016399e+00	1.016276e+00	1.015479e+00	1.013329e+00	1.009917e+00	1.005981e+00	1.002153e+00	9.987340e-01	9.958479e-01	9.935848e-01	9.920135e-01	9.911058e-01	9.907052e-01	9.905904e-01	9.905776e-01	9.906616e-01	9.910925e-01	9.919835e-01	9.930826e-01	9.940881e-01	9.948827e-01	9.954791e-01	9.959200e-01	9.962401e-01	9.964638e-01	9.966093e-01	9.966893e-01	9.967182e-01	9.967120e-01	9.966869e-01	9.966601e-01	9.966658e-01	9.968208e-01	9.974866e-01	9.993719e-01	1.002941e+00	1.007353e+00	1.010961e+00	1.012933e+00	1.013563e+00	1.013491e+00	1.013150e+00	1.012172e+00	1.009825e+00	1.006049e+00	1.001399e+00	9.965171e-01	9.919499e-01	9.881530e-01	9.854267e-01	9.837021e-01	9.827842e-01	9.822830e-01	9.993962e-01	9.993997e-01	9.994018e-01	9.994036e-01	9.994041e-01	9.994048e-01	9.994059e-01	9.994069e-01	9.994071e-01	9.994057e-01	9.994035e-01	9.994025e-01	9.994004e-01	9.993984e-01	9.993958e-01	9.993929e-01	9.993895e-01	9.993875e-01	9.993857e-01	9.993846e-01	9.993825e-01	9.993801e-01	9.993771e-01	9.993731e-01	9.993695e-01	9.993660e-01	9.993620e-01	9.993576e-01	9.993533e-01	9.993491e-01	9.993441e-01	9.993378e-01	9.993313e-01	9.993215e-01	9.993106e-01	9.993032e-01	9.993001e-01	9.992997e-01	9.993027e-01	9.993345e-01	9.995253e-01	1.000280e+00	1.002316e+00	1.005962e+00	1.010238e+00	1.013603e+00	1.015432e+00	1.016081e+00	1.016172e+00	1.016072e+00	1.015379e+00	1.013412e+00	1.010157e+00	1.006291e+00	1.002474e+00	9.990536e-01	9.961674e-01	9.938887e-01	9.922696e-01	9.912932e-01	9.908313e-01	9.906826e-01	9.906588e-01	9.907081e-01	9.910384e-01	9.918292e-01	9.929018e-01	9.939333e-01	9.947645e-01	9.953893e-01	9.958499e-01	9.961843e-01	9.964184e-01	9.965692e-01	9.966524e-01	9.966842e-01	9.966816e-01	9.966611e-01	9.966408e-01	9.966574e-01	9.968332e-01	9.975235e-01	9.993866e-01	1.002833e+00	1.007093e+00	1.010631e+00	1.012616e+00	1.013276e+00	1.013217e+00	1.012878e+00	1.011973e+00	1.009778e+00	1.006135e+00	1.001538e+00	9.966629e-01	9.921354e-01	9.884325e-01	9.857850e-01	9.840512e-01	9.830967e-01	9.825637e-01	9.993947e-01	9.993968e-01	9.993988e-01	9.994010e-01	9.994019e-01	9.994035e-01	9.994056e-01	9.994072e-01	9.994072e-01	9.994055e-01	9.994034e-01	9.994013e-01	9.993999e-01	9.993976e-01	9.993953e-01	9.993926e-01	9.993894e-01	9.993870e-01	9.993846e-01	9.993821e-01	9.993796e-01	9.993771e-01	9.993749e-01	9.993715e-01	9.993682e-01	9.993652e-01	9.993613e-01	9.993570e-01	9.993524e-01	9.993478e-01	9.993431e-01	9.993374e-01	9.993310e-01	9.993211e-01	9.993106e-01	9.993030e-01	9.992996e-01	9.992988e-01	9.993020e-01	9.993373e-01	9.995421e-01	1.000314e+00	1.002311e+00	1.005824e+00	1.009957e+00	1.013274e+00	1.015130e+00	1.015821e+00	1.015930e+00	1.015854e+00	1.015264e+00	1.013484e+00	1.010406e+00	1.006634e+00	1.002843e+00	9.994196e-01	9.965238e-01	9.942236e-01	9.925576e-01	9.915125e-01	9.909830e-01	9.907902e-01	9.907504e-01	9.907714e-01	9.910088e-01	9.916878e-01	9.927129e-01	9.937632e-01	9.946330e-01	9.952912e-01	9.957758e-01	9.961271e-01	9.963722e-01	9.965293e-01	9.966155e-01	9.966499e-01	9.966508e-01	9.966356e-01	9.966225e-01	9.966513e-01	9.968507e-01	9.975670e-01	9.994044e-01	1.002719e+00	1.006811e+00	1.010270e+00	1.012270e+00	1.012965e+00	1.012923e+00	1.012586e+00	1.011752e+00	1.009707e+00	1.006207e+00	1.001685e+00	9.968440e-01	9.923807e-01	9.887796e-01	9.861982e-01	9.844430e-01	9.834523e-01	9.828865e-01	9.993942e-01	9.993946e-01	9.993967e-01	9.993987e-01	9.993996e-01	9.994018e-01	9.994047e-01	9.994072e-01	9.994076e-01	9.994058e-01	9.994034e-01	9.994015e-01	9.993995e-01	9.993984e-01	9.993961e-01	9.993933e-01	9.993901e-01	9.993871e-01	9.993839e-01	9.993805e-01	9.993775e-01	9.993752e-01	9.993735e-01	9.993708e-01	9.993682e-01	9.993656e-01	9.993619e-01	9.993579e-01	9.993538e-01	9.993493e-01	9.993439e-01	9.993374e-01	9.993306e-01	9.993206e-01	9.993102e-01	9.993022e-01	9.992979e-01	9.992965e-01	9.993001e-01	9.993424e-01	9.995670e-01	1.000354e+00	1.002308e+00	1.005682e+00	1.009661e+00	1.012915e+00	1.014797e+00	1.015534e+00	1.015671e+00	1.015616e+00	1.015129e+00	1.013543e+00	1.010658e+00	1.007004e+00	1.003256e+00	9.998350e-01	9.969248e-01	9.945956e-01	9.928777e-01	9.917611e-01	9.911605e-01	9.909170e-01	9.908558e-01	9.908531e-01	9.910059e-01	9.915582e-01	9.925170e-01	9.935785e-01	9.944902e-01	9.951877e-01	9.957003e-01	9.960700e-01	9.963265e-01	9.964894e-01	9.965786e-01	9.966155e-01	9.966202e-01	9.966096e-01	9.966028e-01	9.966459e-01	9.968716e-01	9.976147e-01	9.994239e-01	1.002600e+00	1.006514e+00	1.009884e+00	1.011894e+00	1.012629e+00	1.012608e+00	1.012274e+00	1.011505e+00	1.009610e+00	1.006267e+00	1.001843e+00	9.970649e-01	9.926926e-01	9.892001e-01	9.866683e-01	9.848803e-01	9.838519e-01	9.832477e-01	9.993950e-01	9.993938e-01	9.993962e-01	9.993976e-01	9.993979e-01	9.994000e-01	9.994033e-01	9.994066e-01	9.994077e-01	9.994062e-01	9.994037e-01	9.994017e-01	9.994000e-01	9.993977e-01	9.993967e-01	9.993941e-01	9.993904e-01	9.993870e-01	9.993829e-01	9.993787e-01	9.993750e-01	9.993731e-01	9.993722e-01	9.993706e-01	9.993687e-01	9.993665e-01	9.993639e-01	9.993595e-01	9.993544e-01	9.993485e-01	9.993429e-01	9.993374e-01	9.993292e-01	9.993194e-01	9.993086e-01	9.992999e-01	9.992951e-01	9.992934e-01	9.992979e-01	9.993510e-01	9.995989e-01	1.000400e+00	1.002308e+00	1.005538e+00	1.009354e+00	1.012535e+00	1.014435e+00	1.015218e+00	1.015388e+00	1.015353e+00	1.014965e+00	1.013577e+00	1.010903e+00	1.007387e+00	1.003700e+00	1.000293e+00	9.973725e-01	9.950111e-01	9.932358e-01	9.920407e-01	9.913608e-01	9.910601e-01	9.909697e-01	9.909540e-01	9.910323e-01	9.914468e-01	9.923114e-01	9.933723e-01	9.943304e-01	9.950747e-01	9.956205e-01	9.960106e-01	9.962788e-01	9.964483e-01	9.965412e-01	9.965806e-01	9.965876e-01	9.965803e-01	9.965808e-01	9.966386e-01	9.968927e-01	9.976643e-01	9.994430e-01	1.002478e+00	1.006208e+00	1.009477e+00	1.011490e+00	1.012265e+00	1.012268e+00	1.011935e+00	1.011223e+00	1.009476e+00	1.006301e+00	1.001998e+00	9.973170e-01	9.930676e-01	9.896895e-01	9.871916e-01	9.853660e-01	9.842988e-01	9.836521e-01	9.993967e-01	9.993947e-01	9.993972e-01	9.993976e-01	9.993971e-01	9.993984e-01	9.994014e-01	9.994050e-01	9.994068e-01	9.994058e-01	9.994034e-01	9.994010e-01	9.993994e-01	9.993976e-01	9.993950e-01	9.993938e-01	9.993904e-01	9.993863e-01	9.993816e-01	9.993766e-01	9.993724e-01	9.993710e-01	9.993710e-01	9.993704e-01	9.993693e-01	9.993674e-01	9.993631e-01	9.993577e-01	9.993521e-01	9.993476e-01	9.993423e-01	9.993355e-01	9.993271e-01	9.993168e-01	9.993054e-01	9.992962e-01	9.992912e-01	9.992893e-01	9.992963e-01	9.993632e-01	9.996344e-01	1.000450e+00	1.002312e+00	1.005394e+00	1.009039e+00	1.012138e+00	1.014051e+00	1.014879e+00	1.015082e+00	1.015064e+00	1.014767e+00	1.013576e+00	1.011129e+00	1.007771e+00	1.004160e+00	1.000781e+00	9.978587e-01	9.954688e-01	9.936355e-01	9.923572e-01	9.915882e-01	9.912167e-01	9.910881e-01	9.910593e-01	9.910841e-01	9.913616e-01	9.920985e-01	9.931369e-01	9.941418e-01	9.949416e-01	9.955278e-01	9.959426e-01	9.962248e-01	9.964025e-01	9.965004e-01	9.965427e-01	9.965516e-01	9.965469e-01	9.965537e-01	9.966270e-01	9.969113e-01	9.977123e-01	9.994603e-01	1.002352e+00	1.005892e+00	1.009051e+00	1.011060e+00	1.011871e+00	1.011898e+00	1.011564e+00	1.010895e+00	1.009286e+00	1.006285e+00	1.002129e+00	9.975874e-01	9.934968e-01	9.902365e-01	9.877600e-01	9.858979e-01	9.847992e-01	9.841122e-01	9.993985e-01	9.993965e-01	9.993988e-01	9.993982e-01	9.993968e-01	9.993970e-01	9.993991e-01	9.994025e-01	9.994047e-01	9.994040e-01	9.994019e-01	9.993991e-01	9.993971e-01	9.993956e-01	9.993938e-01	9.993909e-01	9.993893e-01	9.993852e-01	9.993800