# vtk DataFile Version 3.0
vtk output
ASCII
DATASET STRUCTURED_GRID
DIMENSIONS 101 101 1
POINTS 10201 double
0.000000e+00	0.000000e+00	0.0	1.000000e-02	0.000000e+00	0.0	2.000000e-02	0.000000e+00	0.0	3.000000e-02	0.000000e+00	0.0	4.000000e-02	0.000000e+00	0.0	5.000000e-02	0.000000e+00	0.0	6.000000e-02	0.000000e+00	0.0	7.000000e-02	0.000000e+00	0.0	8.000000e-02	0.000000e+00	0.0	9.000000e-02	0.000000e+00	0.0	1.000000e-01	0.000000e+00	0.0	1.100000e-01	0.000000e+00	0.0	1.200000e-01	0.000000e+00	0.0	1.300000e-01	0.000000e+00	0.0	1.400000e-01	0.000000e+00	0.0	1.500000e-01	0.000000e+00	0.0	1.600000e-01	0.000000e+00	0.0	1.700000e-01	0.000000e+00	0.0	1.800000e-01	0.000000e+00	0.0	1.900000e-01	0.000000e+00	0.0	2.000000e-01	0.000000e+00	0.0	2.100000e-01	0.000000e+00	0.0	2.200000e-01	0.000000e+00	0.0	2.300000e-01	0.000000e+00	0.0	2.400000e-01	0.000000e+00	0.0	2.500000e-01	0.000000e+00	0.0	2.600000e-01	0.000000e+00	0.0	2.700000e-01	0.000000e+00	0.0	2.800000e-01	0.000000e+00	0.0	2.900000e-01	0.000000e+00	0.0	3.000000e-01	0.000000e+00	0.0	3.100000e-01	0.000000e+00	0.0	3.200000e-01	0.000000e+00	0.0	3.300000e-01	0.000000e+00	0.0	3.400000e-01	0.000000e+00	0.0	3.500000e-01	0.000000e+00	0.0	3.600000e-01	0.000000e+00	0.0	3.700000e-01	0.000000e+00	0.0	3.800000e-01	0.000000e+00	0.0	3.900000e-01	0.000000e+00	0.0	4.000000e-01	0.000000e+00	0.0	4.100000e-01	0.000000e+00	0.0	4.200000e-01	0.000000e+00	0.0	4.300000e-01	0.000000e+00	0.0	4.400000e-01	0.000000e+00	0.0	4.500000e-01	0.000000e+00	0.0	4.600000e-01	0.000000e+00	0.0	4.700000e-01	0.000000e+00	0.0	4.800000e-01	0.000000e+00	0.0	4.900000e-01	0.000000e+00	0.0	5.000000e-01	0.000000e+00	0.0	5.100000e-01	0.000000e+00	0.0	5.200000e-01	0.000000e+00	0.0	5.300000e-01	0.000000e+00	0.0	5.400000e-01	0.000000e+00	0.0	5.500000e-01	0.000000e+00	0.0	5.600000e-01	0.000000e+00	0.0	5.700000e-01	0.000000e+00	0.0	5.800000e-01	0.000000e+00	0.0	5.900000e-01	0.000000e+00	0.0	6.000000e-01	0.000000e+00	0.0	6.100000e-01	0.000000e+00	0.0	6.200000e-01	0.000000e+00	0.0	6.300000e-01	0.000000e+00	0.0	6.400000e-01	0.000000e+00	0.0	6.500000e-01	0.000000e+00	0.0	6.600000e-01	0.000000e+00	0.0	6.700000e-01	0.000000e+00	0.0	6.800000e-01	0.000000e+00	0.0	6.900000e-01	0.000000e+00	0.0	7.000000e-01	0.000000e+00	0.0	7.100000e-01	0.000000e+00	0.0	7.200000e-01	0.000000e+00	0.0	7.300000e-01	0.000000e+00	0.0	7.400000e-01	0.000000e+00	0.0	7.500000e-01	0.000000e+00	0.0	7.600000e-01	0.000000e+00	0.0	7.700000e-01	0.000000e+00	0.0	7.800000e-01	0.000000e+00	0.0	7.900000e-01	0.000000e+00	0.0	8.000000e-01	0.000000e+00	0.0	8.100000e-01	0.000000e+00	0.0	8.200000e-01	0.000000e+00	0.0	8.300000e-01	0.000000e+00	0.0	8.400000e-01	0.000000e+00	0.0	8.500000e-01	0.000000e+00	0.0	8.600000e-01	0.000000e+00	0.0	8.700000e-01	0.000000e+00	0.0	8.800000e-01	0.000000e+00	0.0	8.900000e-01	0.000000e+00	0.0	9.000000e-01	0.000000e+00	0.0	9.100000e-01	0.000000e+00	0.0	9.200000e-01	0.000000e+00	0.0	9.300000e-01	0.000000e+00	0.0	9.400000e-01	0.000000e+00	0.0	9.500000e-01	0.000000e+00	0.0	9.600000e-01	0.000000e+00	0.0	9.700000e-01	0.000000e+00	0.0	9.800000e-01	0.000000e+00	0.0	9.900000e-01	0.000000e+00	0.0	1.000000e+00	0.000000e+00	0.0	0.000000e+00	1.000000e-02	0.0	1.000000e-02	1.000000e-02	0.0	2.000000e-02	1.000000e-02	0.0	3.000000e-02	1.000000e-02	0.0	4.000000e-02	1.000000e-02	0.0	5.000000e-02	1.000000e-02	0.0	6.000000e-02	1.000000e-02	0.0	7.000000e-02	1.000000e-02	0.0	8.000000e-02	1.000000e-02	0.0	9.000000e-02	1.000000e-02	0.0	1.000000e-01	1.000000e-02	0.0	1.100000e-01	1.000000e-02	0.0	1.200000e-01	1.000000e-02	0.0	1.300000e-01	1.000000e-02	0.0	1.400000e-01	1.000000e-02	0.0	1.500000e-01	1.000000e-02	0.0	1.600000e-01	1.000000e-02	0.0	1.700000e-01	1.000000e-02	0.0	1.800000e-01	1.000000e-02	0.0	1.900000e-01	1.000000e-02	0.0	2.000000e-01	1.000000e-02	0.0	2.100000e-01	1.000000e-02	0.0	2.200000e-01	1.000000e-02	0.0	2.300000e-01	1.000000e-02	0.0	2.400000e-01	1.000000e-02	0.0	2.500000e-01	1.000000e-02	0.0	2.600000e-01	1.000000e-02	0.0	2.700000e-01	1.000000e-02	0.0	2.800000e-01	1.000000e-02	0.0	2.900000e-01	1.000000e-02	0.0	3.000000e-01	1.000000e-02	0.0	3.100000e-01	1.000000e-02	0.0	3.200000e-01	1.000000e-02	0.0	3.300000e-01	1.000000e-02	0.0	3.400000e-01	1.000000e-02	0.0	3.500000e-01	1.000000e-02	0.0	3.600000e-01	1.000000e-02	0.0	3.700000e-01	1.000000e-02	0.0	3.800000e-01	1.000000e-02	0.0	3.900000e-01	1.000000e-02	0.0	4.000000e-01	1.000000e-02	0.0	4.100000e-01	1.000000e-02	0.0	4.200000e-01	1.000000e-02	0.0	4.300000e-01	1.000000e-02	0.0	4.400000e-01	1.000000e-02	0.0	4.500000e-01	1.000000e-02	0.0	4.600000e-01	1.000000e-02	0.0	4.700000e-01	1.000000e-02	0.0	4.800000e-01	1.000000e-02	0.0	4.900000e-01	1.000000e-02	0.0	5.000000e-01	1.000000e-02	0.0	5.100000e-01	1.000000e-02	0.0	5.200000e-01	1.000000e-02	0.0	5.300000e-01	1.000000e-02	0.0	5.400000e-01	1.000000e-02	0.0	5.500000e-01	1.000000e-02	0.0	5.600000e-01	1.000000e-02	0.0	5.700000e-01	1.000000e-02	0.0	5.800000e-01	1.000000e-02	0.0	5.900000e-01	1.000000e-02	0.0	6.000000e-01	1.000000e-02	0.0	6.100000e-01	1.000000e-02	0.0	6.200000e-01	1.000000e-02	0.0	6.300000e-01	1.000000e-02	0.0	6.400000e-01	1.000000e-02	0.0	6.500000e-01	1.000000e-02	0.0	6.600000e-01	1.000000e-02	0.0	6.700000e-01	1.000000e-02	0.0	6.800000e-01	1.000000e-02	0.0	6.900000e-01	1.000000e-02	0.0	7.000000e-01	1.000000e-02	0.0	7.100000e-01	1.000000e-02	0.0	7.200000e-01	1.000000e-02	0.0	7.300000e-01	1.000000e-02	0.0	7.400000e-01	1.000000e-02	0.0	7.500000e-01	1.000000e-02	0.0	7.600000e-01	1.000000e-02	0.0	7.700000e-01	1.000000e-02	0.0	7.800000e-01	1.000000e-02	0.0	7.900000e-01	1.000000e-02	0.0	8.000000e-01	1.000000e-02	0.0	8.100000e-01	1.000000e-02	0.0	8.200000e-01	1.000000e-02	0.0	8.300000e-01	1.000000e-02	0.0	8.400000e-01	1.000000e-02	0.0	8.500000e-01	1.000000e-02	0.0	8.600000e-01	1.000000e-02	0.0	8.700000e-01	1.000000e-02	0.0	8.800000e-01	1.000000e-02	0.0	8.900000e-01	1.000000e-02	0.0	9.000000e-01	1.000000e-02	0.0	9.100000e-01	1.000000e-02	0.0	9.200000e-01	1.000000e-02	0.0	9.300000e-01	1.000000e-02	0.0	9.400000e-01	1.000000e-02	0.0	9.500000e-01	1.000000e-02	0.0	9.600000e-01	1.000000e-02	0.0	9.700000e-01	1.000000e-02	0.0	9.800000e-01	1.000000e-02	0.0	9.900000e-01	1.000000e-02	0.0	1.000000e+00	1.000000e-02	0.0	0.000000e+00	2.000000e-02	0.0	1.000000e-02	2.000000e-02	0.0	2.000000e-02	2.000000e-02	0.0	3.000000e-02	2.000000e-02	0.0	4.000000e-02	2.000000e-02	0.0	5.000000e-02	2.000000e-02	0.0	6.000000e-02	2.000000e-02	0.0	7.000000e-02	2.000000e-02	0.0	8.000000e-02	2.000000e-02	0.0	9.000000e-02	2.000000e-02	0.0	1.000000e-01	2.000000e-02	0.0	1.100000e-01	2.000000e-02	0.0	1.200000e-01	2.000000e-02	0.0	1.300000e-01	2.000000e-02	0.0	1.400000e-01	2.000000e-02	0.0	1.500000e-01	2.000000e-02	0.0	1.600000e-01	2.000000e-02	0.0	1.700000e-01	2.000000e-02	0.0	1.800000e-01	2.000000e-02	0.0	1.900000e-01	2.000000e-02	0.0	2.000000e-01	2.000000e-02	0.0	2.100000e-01	2.000000e-02	0.0	2.200000e-01	2.000000e-02	0.0	2.300000e-01	2.000000e-02	0.0	2.400000e-01	2.000000e-02	0.0	2.500000e-01	2.000000e-02	0.0	2.600000e-01	2.000000e-02	0.0	2.700000e-01	2.000000e-02	0.0	2.800000e-01	2.000000e-02	0.0	2.900000e-01	2.000000e-02	0.0	3.000000e-01	2.000000e-02	0.0	3.100000e-01	2.000000e-02	0.0	3.200000e-01	2.000000e-02	0.0	3.300000e-01	2.000000e-02	0.0	3.400000e-01	2.000000e-02	0.0	3.500000e-01	2.000000e-02	0.0	3.600000e-01	2.000000e-02	0.0	3.700000e-01	2.000000e-02	0.0	3.800000e-01	2.000000e-02	0.0	3.900000e-01	2.000000e-02	0.0	4.000000e-01	2.000000e-02	0.0	4.100000e-01	2.000000e-02	0.0	4.200000e-01	2.000000e-02	0.0	4.300000e-01	2.000000e-02	0.0	4.400000e-01	2.000000e-02	0.0	4.500000e-01	2.000000e-02	0.0	4.600000e-01	2.000000e-02	0.0	4.700000e-01	2.000000e-02	0.0	4.800000e-01	2.000000e-02	0.0	4.900000e-01	2.000000e-02	0.0	5.000000e-01	2.000000e-02	0.0	5.100000e-01	2.000000e-02	0.0	5.200000e-01	2.000000e-02	0.0	5.300000e-01	2.000000e-02	0.0	5.400000e-01	2.000000e-02	0.0	5.500000e-01	2.000000e-02	0.0	5.600000e-01	2.000000e-02	0.0	5.700000e-01	2.000000e-02	0.0	5.800000e-01	2.000000e-02	0.0	5.900000e-01	2.000000e-02	0.0	6.000000e-01	2.000000e-02	0.0	6.100000e-01	2.000000e-02	0.0	6.200000e-01	2.000000e-02	0.0	6.300000e-01	2.000000e-02	0.0	6.400000e-01	2.000000e-02	0.0	6.500000e-01	2.000000e-02	0.0	6.600000e-01	2.000000e-02	0.0	6.700000e-01	2.000000e-02	0.0	6.800000e-01	2.000000e-02	0.0	6.900000e-01	2.000000e-02	0.0	7.000000e-01	2.000000e-02	0.0	7.100000e-01	2.000000e-02	0.0	7.200000e-01	2.000000e-02	0.0	7.300000e-01	2.000000e-02	0.0	7.400000e-01	2.000000e-02	0.0	7.500000e-01	2.000000e-02	0.0	7.600000e-01	2.000000e-02	0.0	7.700000e-01	2.000000e-02	0.0	7.800000e-01	2.000000e-02	0.0	7.900000e-01	2.000000e-02	0.0	8.000000e-01	2.000000e-02	0.0	8.100000e-01	2.000000e-02	0.0	8.200000e-01	2.000000e-02	0.0	8.300000e-01	2.000000e-02	0.0	8.400000e-01	2.000000e-02	0.0	8.500000e-01	2.000000e-02	0.0	8.600000e-01	2.000000e-02	0.0	8.700000e-01	2.000000e-02	0.0	8.800000e-01	2.000000e-02	0.0	8.900000e-01	2.000000e-02	0.0	9.000000e-01	2.000000e-02	0.0	9.100000e-01	2.000000e-02	0.0	9.200000e-01	2.000000e-02	0.0	9.300000e-01	2.000000e-02	0.0	9.400000e-01	2.000000e-02	0.0	9.500000e-01	2.000000e-02	0.0	9.600000e-01	2.000000e-02	0.0	9.700000e-01	2.000000e-02	0.0	9.800000e-01	2.000000e-02	0.0	9.900000e-01	2.000000e-02	0.0	1.000000e+00	2.000000e-02	0.0	0.000000e+00	3.000000e-02	0.0	1.000000e-02	3.000000e-02	0.0	2.000000e-02	3.000000e-02	0.0	3.000000e-02	3.000000e-02	0.0	4.000000e-02	3.000000e-02	0.0	5.000000e-02	3.000000e-02	0.0	6.000000e-02	3.000000e-02	0.0	7.000000e-02	3.000000e-02	0.0	8.000000e-02	3.000000e-02	0.0	9.000000e-02	3.000000e-02	0.0	1.000000e-01	3.000000e-02	0.0	1.100000e-01	3.000000e-02	0.0	1.200000e-01	3.000000e-02	0.0	1.300000e-01	3.000000e-02	0.0	1.400000e-01	3.000000e-02	0.0	1.500000e-01	3.000000e-02	0.0	1.600000e-01	3.000000e-02	0.0	1.700000e-01	3.000000e-02	0.0	1.800000e-01	3.000000e-02	0.0	1.900000e-01	3.000000e-02	0.0	2.000000e-01	3.000000e-02	0.0	2.100000e-01	3.000000e-02	0.0	2.200000e-01	3.000000e-02	0.0	2.300000e-01	3.000000e-02	0.0	2.400000e-01	3.000000e-02	0.0	2.500000e-01	3.000000e-02	0.0	2.600000e-01	3.000000
[...]
POINT_DATA 10201

SCALARS Height double 1
LOOKUP_TABLE default
9.989956e-01	9.990162e-01	9.990079e-01	9.990065e-01	9.990051e-01	9.990023e-01	9.989964e-01	9.989881e-01	9.989819e-01	9.989796e-01	9.989793e-01	9.989792e-01	9.989773e-01	9.989731e-01	9.989672e-01	9.989608e-01	9.989532e-01	9.989489e-01	9.989462e-01	9.989449e-01	9.989423e-01	9.989372e-01	9.989246e-01	9.989086e-01	9.988919e-01	9.988730e-01	9.988549e-01	9.988367e-01	9.988193e-01	9.988030e-01	9.987874e-01	9.987721e-01	9.987566e-01	9.987399e-01	9.987217e-01	9.987014e-01	9.986791e-01	9.986546e-01	9.986281e-01	9.985999e-01	9.985698e-01	9.985375e-01	9.985026e-01	9.984647e-01	9.984234e-01	9.983788e-01	9.983305e-01	9.982788e-01	9.982236e-01	9.981646e-01	9.981011e-01	9.980321e-01	9.979567e-01	9.978739e-01	9.977823e-01	9.976804e-01	9.975666e-01	9.974394e-01	9.972973e-01	9.971379e-01	9.969561e-01	9.967412e-01	9.964727e-01	9.961172e-01	9.956266e-01	9.949463e-01	9.940271e-01	9.928783e-01	9.917292e-01	9.911459e-01	9.921436e-01	9.956500e-01	1.001295e+00	1.006792e+00	1.010376e+00	1.012553e+00	1.014861e+00	1.017395e+00	1.019433e+00	1.020515e+00	1.020732e+00	1.020224e+00	1.018863e+00	1.016637e+00	1.014057e+00	1.011818e+00	1.009601e+00	1.005840e+00	1.000154e+00	9.944777e-01	9.910463e-01	9.901432e-01	9.907691e-01	9.919095e-01	9.930119e-01	9.938689e-01	9.944691e-01	9.948632e-01	9.951018e-01	9.952081e-01	9.952828e-01	9.990087e-01	9.990272e-01	9.990117e-01	9.990094e-01	9.990078e-01	9.990046e-01	9.989989e-01	9.989919e-01	9.989861e-01	9.989830e-01	9.989816e-01	9.989805e-01	9.989778e-01	9.989727e-01	9.989656e-01	9.989575e-01	9.989482e-01	9.989411e-01	9.989364e-01	9.989321e-01	9.989280e-01	9.989246e-01	9.989155e-01	9.989020e-01	9.988862e-01	9.988718e-01	9.988542e-01	9.988363e-01	9.988192e-01	9.988031e-01	9.987877e-01	9.987727e-01	9.987574e-01	9.987410e-01	9.987225e-01	9.987021e-01	9.986795e-01	9.986548e-01	9.986281e-01	9.985996e-01	9.985692e-01	9.985361e-01	9.985006e-01	9.984621e-01	9.984203e-01	9.983750e-01	9.983262e-01	9.982739e-01	9.982180e-01	9.981584e-01	9.980943e-01	9.980248e-01	9.979490e-01	9.978657e-01	9.977736e-01	9.976712e-01	9.975569e-01	9.974292e-01	9.972865e-01	9.971265e-01	9.969439e-01	9.967281e-01	9.964587e-01	9.961014e-01	9.956081e-01	9.949268e-01	9.940039e-01	9.928328e-01	9.916013e-01	9.908868e-01	9.918276e-01	9.955941e-01	1.001565e+00	1.007028e+00	1.010398e+00	1.012511e+00	1.014917e+00	1.017620e+00	1.019594e+00	1.020579e+00	1.020773e+00	1.020296e+00	1.019036e+00	1.016846e+00	1.014087e+00	1.011768e+00	1.009636e+00	1.006088e+00	1.000411e+00	9.943906e-01	9.907297e-01	9.898924e-01	9.906460e-01	9.918654e-01	9.929903e-01	9.938494e-01	9.944506e-01	9.948464e-01	9.950876e-01	9.951930e-01	9.952684e-01	9.990138e-01	9.990328e-01	9.990164e-01	9.990150e-01	9.990136e-01	9.990104e-01	9.990045e-01	9.989964e-01	9.989891e-01	9.989846e-01	9.989823e-01	9.989804e-01	9.989770e-01	9.989713e-01	9.989636e-01	9.989553e-01	9.989449e-01	9.989415e-01	9.989359e-01	9.989320e-01	9.989288e-01	9.989226e-01	9.989164e-01	9.989001e-01	9.988836e-01	9.988656e-01	9.988493e-01	9.988314e-01	9.988148e-01	9.987994e-01	9.987850e-01	9.987709e-01	9.987563e-01	9.987405e-01	9.987228e-01	9.987028e-01	9.986810e-01	9.986571e-01	9.986312e-01	9.986033e-01	9.985731e-01	9.985404e-01	9.985051e-01	9.984670e-01	9.984257e-01	9.983811e-01	9.983326e-01	9.982806e-01	9.982248e-01	9.981651e-01	9.981008e-01	9.980312e-01	9.979552e-01	9.978716e-01	9.977790e-01	9.976763e-01	9.975618e-01	9.974340e-01	9.972913e-01	9.971308e-01	9.969470e-01	9.967284e-01	9.964546e-01	9.960915e-01	9.955903e-01	9.949010e-01	9.939801e-01	9.928212e-01	9.915827e-01	9.908352e-01	9.918338e-01	9.958141e-01	1.001840e+00	1.007095e+00	1.010311e+00	1.012407e+00	1.014825e+00	1.017642e+00	1.019611e+00	1.020457e+00	1.020596e+00	1.020199e+00	1.019072e+00	1.016856e+00	1.013991e+00	1.011663e+00	1.009552e+00	1.006166e+00	1.000692e+00	9.946025e-01	9.907435e-01	9.898527e-01	9.906242e-01	9.918450e-01	9.929606e-01	9.938184e-01	9.944249e-01	9.948286e-01	9.950790e-01	9.951916e-01	9.952686e-01	9.990084e-01	9.990247e-01	9.990123e-01	9.990119e-01	9.990114e-01	9.990089e-01	9.990036e-01	9.989958e-01	9.989882e-01	9.989838e-01	9.989814e-01	9.989796e-01	9.989766e-01	9.989714e-01	9.989641e-01	9.989564e-01	9.989463e-01	9.989418e-01	9.989376e-01	9.989341e-01	9.989311e-01	9.989245e-01	9.989185e-01	9.989017e-01	9.988855e-01	9.988680e-01	9.988500e-01	9.988315e-01	9.988143e-01	9.987988e-01	9.987844e-01	9.987704e-01	9.987556e-01	9.987392e-01	9.987210e-01	9.987009e-01	9.986788e-01	9.986549e-01	9.986290e-01	9.986010e-01	9.985705e-01	9.985374e-01	9.985016e-01	9.984632e-01	9.984219e-01	9.983772e-01	9.983289e-01	9.982767e-01	9.982205e-01	9.981602e-01	9.980953e-01	9.980252e-01	9.979488e-01	9.978647e-01	9.977715e-01	9.976680e-01	9.975528e-01	9.974246e-01	9.972814e-01	9.971200e-01	9.969342e-01	9.967117e-01	9.964315e-01	9.960595e-01	9.955462e-01	9.948424e-01	9.939136e-01	9.927588e-01	9.915141e-01	9.907414e-01	9.918054e-01	9.959294e-01	1.001952e+00	1.007101e+00	1.010249e+00	1.012353e+00	1.014797e+00	1.017742e+00	1.019846e+00	1.020608e+00	1.020667e+00	1.020368e+00	1.019300e+00	1.016929e+00	1.013960e+00	1.011610e+00	1.009486e+00	1.006163e+00	1.000807e+00	9.947132e-01	9.907217e-01	9.897741e-01	9.905553e-01	9.917772e-01	9.928890e-01	9.937542e-01	9.943724e-01	9.947879e-01	9.950482e-01	9.951665e-01	9.952485e-01	9.990065e-01	9.990215e-01	9.990102e-01	9.990107e-01	9.990107e-01	9.990086e-01	9.990037e-01	9.989952e-01	9.989881e-01	9.989825e-01	9.989792e-01	9.989769e-01	9.989737e-01	9.989684e-01	9.989612e-01	9.989531e-01	9.989439e-01	9.989392e-01	9.989355e-01	9.989322e-01	9.989295e-01	9.989227e-01	9.989171e-01	9.989003e-01	9.988840e-01	9.988666e-01	9.988479e-01	9.988290e-01	9.988115e-01	9.987957e-01	9.987812e-01	9.987672e-01	9.987526e-01	9.987362e-01	9.987179e-01	9.986976e-01	9.986756e-01	9.986517e-01	9.986260e-01	9.985981e-01	9.985677e-01	9.985346e-01	9.984988e-01	9.984602e-01	9.984189e-01	9.983745e-01	9.983264e-01	9.982741e-01	9.982175e-01	9.981564e-01	9.980907e-01	9.980198e-01	9.979429e-01	9.978583e-01	9.977646e-01	9.976602e-01	9.975441e-01	9.974151e-01	9.972711e-01	9.971084e-01	9.969197e-01	9.966921e-01	9.964032e-01	9.960188e-01	9.954896e-01	9.947696e-01	9.938297e-01	9.926714e-01	9.914195e-01	9.906649e-01	9.918314e-01	9.960494e-01	1.002023e+00	1.007071e+00	1.010184e+00	1.012308e+00	1.014779e+00	1.017812e+00	1.020094e+00	1.020880e+00	1.020888e+00	1.020644e+00	1.019524e+00	1.016980e+00	1.013940e+00	1.011562e+00	1.009413e+00	1.006128e+00	1.000876e+00	9.948376e-01	9.907530e-01	9.897129e-01	9.904623e-01	9.916822e-01	9.927963e-01	9.936715e-01	9.943052e-01	9.947364e-01	9.950091e-01	9.951345e-01	9.952221e-01	9.990042e-01	9.990184e-01	9.990076e-01	9.990088e-01	9.990089e-01	9.990073e-01	9.990027e-01	9.989941e-01	9.989860e-01	9.989803e-01	9.989766e-01	9.989738e-01	9.989701e-01	9.989649e-01	9.989577e-01	9.989500e-01	9.989413e-01	9.989366e-01	9.989335e-01	9.989306e-01	9.989281e-01	9.989216e-01	9.989154e-01	9.988992e-01	9.988824e-01	9.988654e-01	9.988468e-01	9.988280e-01	9.988102e-01	9.987941e-01	9.987795e-01	9.987650e-01	9.987502e-01	9.987340e-01	9.987157e-01	9.986953e-01	9.986729e-01	9.986487e-01	9.986226e-01	9.985945e-01	9.985640e-01	9.985308e-01	9.984949e-01	9.984562e-01	9.984147e-01	9.983702e-01	9.983218e-01	9.982693e-01	9.982121e-01	9.981502e-01	9.980833e-01	9.980114e-01	9.979336e-01	9.978483e-01	9.977539e-01	9.976488e-01	9.975317e-01	9.974015e-01	9.972563e-01	9.970918e-01	9.968994e-01	9.966652e-01	9.963655e-01	9.959648e-01	9.954172e-01	9.946800e-01	9.937259e-01	9.925491e-01	9.912885e-01	9.906072e-01	9.919214e-01	9.961726e-01	1.002035e+00	1.006991e+00	1.010101e+00	1.012283e+00	1.014795e+00	1.017889e+00	1.020340e+00	1.021266e+00	1.021297e+00	1.021015e+00	1.019742e+00	1.017047e+00	1.013956e+00	1.011531e+00	1.009320e+00	1.006034e+00	1.000883e+00	9.949705e-01	9.908441e-01	9.896681e-01	9.903399e-01	9.915535e-01	9.926819e-01	9.935713e-01	9.942220e-01	9.946701e-01	9.949576e-01	9.950918e-01	9.951861e-01	9.990010e-01	9.990147e-01	9.990053e-01	9.990065e-01	9.990063e-01	9.990050e-01	9.990008e-01	9.989929e-01	9.989841e-01	9.989782e-01	9.989742e-01	9.989712e-01	9.989671e-01	9.989616e-01	9.989545e-01	9.989472e-01	9.989384e-01	9.989336e-01	9.989310e-01	9.989286e-01	9.989255e-01	9.989198e-01	9.989117e-01	9.988961e-01	9.988793e-01	9.988627e-01	9.988443e-01	9.988257e-01	9.988081e-01	9.987919e-01	9.987764e-01	9.987618e-01	9.987469e-01	9.987307e-01	9.987123e-01	9.986918e-01	9.986692e-01	9.986447e-01	9.986184e-01	9.985900e-01	9.985595e-01	9.985264e-01	9.984907e-01	9.984521e-01	9.984105e-01	9.983656e-01	9.983169e-01	9.982640e-01	9.982063e-01	9.981436e-01	9.980757e-01	9.980024e-01	9.979232e-01	9.978367e-01	9.977413e-01	9.976352e-01	9.975170e-01	9.973854e-01	9.972381e-01	9.970706e-01	9.968735e-01	9.966306e-01	9.963175e-01	9.958974e-01	9.953259e-01	9.945656e-01	9.935919e-01	9.923908e-01	9.911335e-01	9.905865e-01	9.920690e-01	9.962893e-01	1.001988e+00	1.006855e+00	1.010007e+00	1.012279e+00	1.014841e+00	1.017977e+00	1.020590e+00	1.021732e+00	1.021845e+00	1.021455e+00	1.019966e+00	1.017134e+00	1.014004e+00	1.011517e+00	1.009205e+00	1.005879e+00	1.000829e+00	9.951008e-01	9.909954e-01	9.896490e-01	9.901985e-01	9.913890e-01	9.925323e-01	9.934431e-01	9.941176e-01	9.945889e-01	9.948934e-01	9.950383e-01	9.951413e-01	9.989944e-01	9.990086e-01	9.990008e-01	9.990035e-01	9.990021e-01	9.990000e-01	9.989963e-01	9.989893e-01	9.989816e-01	9.989760e-01	9.989725e-01	9.989694e-01	9.989651e-01	9.989594e-01	9.989527e-01	9.989457e-01	9.989389e-01	9.989317e-01	9.989303e-01	9.989271e-01	9.989233e-01	9.989188e-01	9.989061e-01	9.988922e-01	9.988762e-01	9.988594e-01	9.988409e-01	9.988225e-01	9.988049e-01	9.987881e-01	9.987725e-01	9.987572e-01	9.987422e-01	9.987258e-01	9.987076e-01	9.986872e-01	9.986646e-01	9.986398e-01	9.986130e-01	9.985843e-01	9.985535e-01	9.985204e-01	9.984848e-01	9.984462e-01	9.984044e-01	9.983590e-01	9.983098e-01	9.982564e-01	9.981983e-01	9.981352e-01	9.980667e-01	9.979924e-01	9.979119e-01	9.978241e-01	9.977275e-01	9.976205e-01	9.975012e-01	9.973680e-01	9.972182e-01	9.970464e-01	9.968427e-01	9.965891e-01	9.962592e-01	9.958168e-01	9.952196e-01	9.944304e-01	9.934210e-01	9.921877e-01	9.909696e-01	9.906148e-01	9.922538e-01	9.964001e-01	1.001893e+00	1.006676e+00	1.009906e+00	1.012295e+00	1.014908e+00	1.018078e+00	1.020858e+00	1.022257e+00	1.022481e+00	1.021956e+00	1.020212e+00	1.017235e+00	1.014078e+00	1.011520e+00	1.009074e+00	1.005675e+00	1.000731e+00	9.952304e-01	9.911889e-01	9.896695e-01	9.900466e-01	9.911818e-01	9.923483e-01	9.932929e-01	9.939964e-01	9.944916e-01	9.948165e-01	9.949731e-01	9.950854e-01	9.989894e-01	9.990057e-01	9.989977e-01	9.990006e-01	9.989989e-01	9.989949e-01	9.989902e-01	9.989839e-01	9.989778e-01	9.989730e-01	9.989700e-01	9.989667e-01	9.989622e-01	9.989564e-01	9.989501e-01	9.989436e-01	9.989373e-01	9.989319e-01	9.989273e-01	9.989268e-01	9.989219e-01	9.989151e-01	9.989028e-01	9.988882e-01	9.988737e-01	9.988560e-01	9.988376e-01	9.988194e-01	9.988017e-01	9.987846e-01	9.987682e-01	9.987527e-01	9.987370e-01	9.987207e-01	9.987023e-01	9.986820e-01	9.986595e-01	9.986346e-01	9.986075e-01	9.985785e-01	9.985473e-01	9.985140e-01	9.984781e-01	9.984392e-01	9.983969e-01	9.983507e-01	9.983007e-01	9.982464e-01	9.981877e-01	9.981239e-01	9.980547e-01	9.979796e-01	9.978980e-01	9.978089e-01	9.977112e-01	9.976032e-01	9.974829e-01	9.973480e-01	9.971953e-01	9.970186e-01	9.968059e-01	9.965398e-01	9.961905e-01	9.957219e-01	9.950940e-01	9.942684e-01	9.932136e-01	9.919500e-01	9.908187e-01	9.906997e-01	9.924858e-01	9.965186e-01	1.001776e+00	1.006475e+00	1.009803e+00	1.012328e+00	1.014994e+00	1.018193e+00	1.021149e+00	1.022824e+00	1.023171e+00	1.022502e+00	1.020484e+00	1.017350e+00	1.014168e+00	1.011538e+00	1.008939e+00	1.005446e+00	1.000611e+00	9.953696e-01	9.914320e-01	9.897411e-01	9.898968e-01	9.909447e-01	9.921258e-01	9.931112e-01	9.938513e-01	9.943762e-01	9.947242e-01	9.948970e-01	9.950185e-01	9.989869e-01	9.990017e-01	9.989955e-01	9.989978e-01	9.989946e-01	9.989892e-01	9.989840e-01	9.989787e-01	9.989737e-01	9.989702e-01	9.989667e-01	9.989635e-01	9.989588e-01	9.989529e-01	9.989469e-01	9.989409e-01	9.989352e-01	9.989304e-01	9.989260e-01	9.989224e-01	9.989181e-01	9.989106e-01	9.988985e-01	9.988865e-01	9.988697e-01	9.988525e-01	9.988344e-01	9.988165e-01	9.987989e-01	9.987815e-01	9.987646e-01	9.987482e-01	9.987320e-01	9.987150e-01	9.986966e-01	9.986763e-01	9.986538e-01	9.986288e-01	9.986016e-01	9.985723e-01	9.985409e-01	9.985071e-01	9.984707e-01	9.984312e-01	9.983882e-01	9.983414e-01	9.982905e-01	9.982353e-01	9.981755e-01	9.981108e-01	9.980407e-01	9.979646e-01	9.978818e-01	9.977914e-01	9.976923e-01	9.975830e-01	9.974611e-01	9.973241e-01	9.971677e-01	9.969847e-01	9.967627e-01	9.964799e-01	9.961081e-01	9.956104e-01	9.949460e-01	9.940725e-01	9.929620e-01	9.916849e-01	9.906976e-01	9.908420e-01	9.927656e-01	9.966485e-01	1.001654e+00	1.006263e+00	1.009700e+00	1.012375e+00	1.015101e+00	1.018326e+00	1.021457e+00	1.023415e+00	1.023895e+00	1.023071e+00	1.020772e+00	1.017481e+00	1.014278e+00	1.011572e+00	1.008807e+00	1.005207e+00	1.000486e+00	9.955214e-01	9.917261e-01	9.898688e-01	9.897601e-01	9.906782e-01	9.918604e-01	9.928932e-01	9.936796e-01	9.942409e-01	9.946165e-01	9.948058e-01	9.949385e-01	9.989850e-01	9.989977e-01	9.989924e-01	9.989940e-01	9.989892e-01	9.989830e-01	9.989774e-01	9.989731e-01	9.989697e-01	9.989666e-01	9.989638e-01	9.989599e-01	9.989554e-01	9.989499e-01	9.989438e-01	9.989381e-01	9.989327e-01	9.989276e-01	9.989225e-01	9.989177e-01	9.989121e-01	9.989041e-01	9.988937e-01	9.988799e-01	9.988645e-01	9.988478e-01	9.988305e-01	9.988130e-01	9.987957e-01	9.987781e-01	9.987608e-01	9.987437e-01	9.987269e-01	9.987097e-01	9.986908e-01	9.986703e-01	9.986476e-01	9.986225e-01	9.985951e-01	9.985654e-01	9.985335e-01	9.984991e-01	9.984619e-01	9.984216e-01	9.983778e-01	9.983304e-01	9.982789e-01	9.982229e-01	9.981622e-01	9.980965e-01	9.980253e-01	9.979482e-01	9.978643e-01	9.977728e-01	9.976722e-01	9.975608e-01	9.974365e-01	9.972961e-01	9.971346e-01	9.969438e-01	9.967092e-01	9.964083e-01	9.960106e-01	9.954789e-01	9.947692e-01	9.938355e-01	9.926667e-01	9.914056e-01	9.906249e-01	9.910373e-01	9.930774e-01	9.967942e-01	1.001541e+00	1.006057e+00	1.009606e+00	1.012438e+00	1.015230e+00	1.018483e+00	1.021776e+00	1.024009e+00	1.024616e+00	1.023635e+00	1.021065e+00	1.017634e+00	1.014413e+00	1.011617e+00	1.008683e+00	1.004974e+00	1.000371e+00	9.956835e-01	9.920578e-01	9.900484e-01	9.896539e-01	9.903912e-01	9.915514e-01	9.926350e-01	9.934774e-01	9.940832e-01	9.944912e-01	9.946994e-01	9.948434e-01	9.989827e-01	9.989928e-01	9.989875e-01	9.989884e-01	9.989829e-01	9.989764e-01	9.989709e-01	9.989679e-01	9.989654e-01	9.989629e-01	9.989600e-01	9.989566e-01	9.989519e-01	9.989470e-01	9.989420e-01	9.989363e-01	9.989310e-01	9.989256e-01	9.989198e-01	9.989144e-01	9.989072e-01	9.988984e-01	9.988867e-01	9.988737e-01	9.988586e-01	9.988428e-01	9.988260e-01	9.988094e-01	9.987916e-01	9.987737e-01	9.987561e-01	9.987387e-01	9.987214e-01	9.987042e-01	9.986849e-01	9.986641e-01	9.986410e-01	9.986156e-01	9.985879e-01	9.985578e-01	9.985251e-01	9.984897e-01	9.984514e-01	9.984101e-01	9.983655e-01	9.983172e-01	9.982651e-01	9.982085e-01	9.981472e-01	9.980807e-01	9.980085e-01	9.979304e-01	9.978455e-01	9.977527e-01	9.976506e-01	9.975368e-01	9.974091e-01	9.972640e-01	9.970965e-01	9.968961e-01	9.966467e-01	9.963240e-01	9.958960e-01	9.953232e-01	9.945568e-01	9.935522e-01	9.923307e-01	9.911320e-01	9.906201e-01	9.913048e-01	9.934107e-01	9.969567e-01	1.001455e+00	1.005874e+00	1.009527e+00	1.012515e+00	1.015392e+00	1.018661e+00	1.022092e+00	1.024573e+00	1.025298e+00	1.024166e+00	1.021352e+00	1.017813e+00	1.014574e+00	1.011677e+00	1.008574e+00	1.004765e+00	1.000278e+00	9.958614e-01	9.924120e-01	9.902999e-01	9.896016e-01	9.900958e-01	9.911994e-01	9.923321e-01	9.932408e-01	9.939004e-01	9.943467e-01	9.945762e-01	9.947328e-01	9.989783e-01	9.989869e-01	9.989806e-01	9.989811e-01	9.989756e-01	9.989694e-01	9.989648e-01	9.989624e-01	9.989604e-01	9.989587e-01	9.989558e-01	9.989525e-01	9.989488e-01	9.989442e-01	9.989397e-01	9.989348e-01	9.989286e-01	9.989223e-01	9.989154e-01	9.989076e-01	9.988991e-01	9.988904e-01	9.988797e-01	9.988668e-01	9.988525e-01	9.988373e-01	9.988213e-01	9.988039e-01	9.987859e-01	9.987677e-01	9.987496e-01	9.987323e-01	9.987151e-01	9.986973e-01	9.986781e-01	9.986570e-01	9.986337e-01	9.986081e-01	9.985800e-01	9.985493e-01	9.985158e-01	9.984795e-01	9.984402e-01	9.983977e-01	9.983519e-01	9.983026e-01	9.982495e-01	9.981922e-01	9.981303e-01	9.980631e-01	9.979901e-01	9.979110e-01	9.978249e-01	9.977305e-01	9.976262e-01	9.975096e-01	9.973780e-01	9.972278e-01	9.970524e-01	9.968407e-01	9.965740e-01	9.962258e-01	9.957621e-01	9.951391e-01	9.943030e-01	9.932187e-01	9.919589e-01	9.908856e-01	9.906941e-01	9.916185e-01	9.937553e-01	9.971502e-01	1.001412e+00	1.005729e+00	1.009471e+00	1.012615e+00	1.015582e+00	1.018857e+00	1.022384e+00	1.025074e+00	1.025897e+00	1.024631e+00	1.021618e+00	1.018017e+00	1.014763e+00	1.011755e+00	1.008489e+00	1.004599e+00	1.000235e+00	9.960641e-01	9.927730e-01	9.906165e-01	9.896311e-01	9.898153e-01	9.908054e-01	9.919789e-01	9.929646e-01	9.936897e-01	9.941816e-01	9.944352e-01	9.946057e-01	9.989722e-01	9.989797e-01	9.989722e-01	9.989728e-01	9.989679e-01	9.989627e-01	9.989589e-01	9.989571e-01	9.989554e-01	9.989532e-01	9.989511e-01	9.989483e-01	9.989450e-01	9.989413e-01	9.989368e-01	9.989319e-01	9.989258e-01	9.989186e-01	9.989105e-01	9.989016e-01	9.988917e-01	9.988824e-01	9.988719e-01	9.988597e-01	9.988462e-01	9.988318e-01	9.988153e-01	9.987980e-01	9.987793e-01	9.987607e-01	9.987427e-01	9.987244e-01	9.987068e-01	9.986890e-01	9.986697e-01	9.986486e-01	9.986251e-01	9.985993e-01	9.985708e-01	9.985396e-01	9.985055e-01	9.984685e-01	9.984283e-01	9.983849e-01	9.983380e-01	9.982875e-01	9.982332e-01	9.981749e-01	9.981121e-01	9.980442e-01	9.979704e-01	9.978901e-01	9.978023e-01	9.977055e-01	9.975982e-01	9.974779e-01	9.973419e-01	9.971858e-01	9.970019e-01	9.967768e-01	9.964896e-01	9.961115e-01	9.956046e-01	9.949203e-01	9.940010e-01	9.928292e-01	9.915663e-01	9.907172e-01	9.908396e-01	9.919523e-01	9.941146e-01	9.973852e-01	1.001436e+00	1.005646e+00	1.009452e+00	1.012737e+00	1.015796e+00	1.019066e+00	1.022628e+00	1.025476e+00	1.026372e+00	1.024998e+00	1.021851e+00	1.018242e+00	1.014976e+00	1.011854e+00	1.008441e+00	1.004503e+00	1.000257e+00	9.963037e-01	9.931401e-01	9.909595e-01	9.897438e-01	9.895814e-01	9.903789e-01	9.915671e-01	9.926396e-01	9.934450e-01	9.939929e-01	9.942745e-01	9.944606e-01	9.989649e-01	9.989722e-01	9.989629e-01	9.989641e-01	9.989600e-01	9.989563e-01	9.989532e-01	9.989519e-01	9.989503e-01	9.989479e-01	9.989454e-01	9.989438e-01	9.989411e-01	9.989376e-01	9.989331e-01	9.989280e-01	9.989218e-01	9.989136e-01	9.989041e-01	9.988938e-01	9.988828e-01	9.988731e-01	9.988631e-01	9.988517e-01	9.988395e-01	9.988249e-01	9.988088e-01	9.987915e-01	9.987739e-01	9.987540e-01	9.987349e-01	9.987162e-01	9.986979e-01	9.986796e-01	9.986601e-01	9.986389e-01	9.986152e-01	9.985888e-01	9.985598e-01	9.985280e-01	9.984934e-01	9.984559e-01	9.984152e-01	9.983711e-01	9.983232e-01	9.982717e-01	9.982165e-01	9.981572e-01	9.980935e-01	9.980246e-01	9.979497e-01	9.978678e-01	9.977777e-01	9.976778e-01	9.975665e-01	9.974417e-01	9.973007e-01	9.971381e-01	9.969441e-01	9.967030e-01	9.963915e-01	9.959775e-01	9.954184e-01	9.946587e-01	9.936388e-01	9.923819e-01	9.911944e-01	9.906665e-01	9.910573e-01	9.922870e-01	9.944957e-01	9.976797e-01	1.001550e+00	1.005641e+00	1.009482e+00	1.012884e+00	1.016029e+00	1.019283e+00	1.022813e+00	1.025738e+00	1.026678e+00	1.025234e+00	1.022037e+00	1.018482e+00	1.015212e+00	1.011978e+00	1.008445e+00	1.004481e+00	1.000372e+00	9.965994e-01	9.935206e-01	9.912984e-01	9.899281e-01	9.894479e-01	9.899500e-01	9.910905e-01	9.922505e-01	9.931552e-01	9.937737e-01	9.940899e-01	9.942942e-01	9.989586e-01	9.989646e-01	9.989531e-01	9.989554e-01	9.989525e-01	9.989500e-01	9.989478e-01	9.989467e-01	9.989450e-01	9.989425e-01	9.989399e-01	9.989382e-01	9.989365e-01	9.989330e-01	9.989286e-01	9.989216e-01	9.989160e-01	9.989083e-01	9.988969