# vtk DataFile Version 3.0
vtk output
ASCII
DATASET STRUCTURED_GRID
DIMENSIONS 101 101 1
POINTS 10201 double
0.000000e+00	0.000000e+00	0.0	1.000000e-02	0.000000e+00	0.0	2.000000e-02	0.000000e+00	0.0	3.000000e-02	0.000000e+00	0.0	4.000000e-02	0.000000e+00	0.0	5.000000e-02	0.000000e+00	0.0	6.000000e-02	0.000000e+00	0.0	7.000000e-02	0.000000e+00	0.0	8.000000e-02	0.000000e+00	0.0	9.000000e-02	0.000000e+00	0.0	1.000000e-01	0.000000e+00	0.0	1.100000e-01	0.000000e+00	0.0	1.200000e-01	0.000000e+00	0.0	1.300000e-01	0.000000e+00	0.0	1.400000e-01	0.000000e+00	0.0	1.500000e-01	0.000000e+00	0.0	1.600000e-01	0.000000e+00	0.0	1.700000e-01	0.000000e+00	0.0	1.800000e-01	0.000000e+00	0.0	1.900000e-01	0.000000e+00	0.0	2.000000e-01	0.000000e+00	0.0	2.100000e-01	0.000000e+00	0.0	2.200000e-01	0.000000e+00	0.0	2.300000e-01	0.000000e+00	0.0	2.400000e-01	0.000000e+00	0.0	2.500000e-01	0.000000e+00	0.0	2.600000e-01	0.000000e+00	0.0	2.700000e-01	0.000000e+00	0.0	2.800000e-01	0.000000e+00	0.0	2.900000e-01	0.000000e+00	0.0	3.000000e-01	0.000000e+00	0.0	3.100000e-01	0.000000e+00	0.0	3.200000e-01	0.000000e+00	0.0	3.300000e-01	0.000000e+00	0.0	3.400000e-01	0.000000e+00	0.0	3.500000e-01	0.000000e+00	0.0	3.600000e-01	0.000000e+00	0.0	3.700000e-01	0.000000e+00	0.0	3.800000e-01	0.000000e+00	0.0	3.900000e-01	0.000000e+00	0.0	4.000000e-01	0.000000e+00	0.0	4.100000e-01	0.000000e+00	0.0	4.200000e-01	0.000000e+00	0.0	4.300000e-01	0.000000e+00	0.0	4.400000e-01	0.000000e+00	0.0	4.500000e-01	0.000000e+00	0.0	4.600000e-01	0.000000e+00	0.0	4.700000e-01	0.000000e+00	0.0	4.800000e-01	0.000000e+00	0.0	4.900000e-01	0.000000e+00	0.0	5.000000e-01	0.000000e+00	0.0	5.100000e-01	0.000000e+00	0.0	5.200000e-01	0.000000e+00	0.0	5.300000e-01	0.000000e+00	0.0	5.400000e-01	0.000000e+00	0.0	5.500000e-01	0.000000e+00	0.0	5.600000e-01	0.000000e+00	0.0	5.700000e-01	0.000000e+00	0.0	5.800000e-01	0.000000e+00	0.0	5.900000e-01	0.000000e+00	0.0	6.000000e-01	0.000000e+00	0.0	6.100000e-01	0.000000e+00	0.0	6.200000e-01	0.000000e+00	0.0	6.300000e-01	0.000000e+00	0.0	6.400000e-01	0.000000e+00	0.0	6.500000e-01	0.000000e+00	0.0	6.600000e-01	0.000000e+00	0.0	6.700000e-01	0.000000e+00	0.0	6.800000e-01	0.000000e+00	0.0	6.900000e-01	0.000000e+00	0.0	7.000000e-01	0.000000e+00	0.0	7.100000e-01	0.000000e+00	0.0	7.200000e-01	0.000000e+00	0.0	7.300000e-01	0.000000e+00	0.0	7.400000e-01	0.000000e+00	0.0	7.500000e-01	0.000000e+00	0.0	7.600000e-01	0.000000e+00	0.0	7.700000e-01	0.000000e+00	0.0	7.800000e-01	0.000000e+00	0.0	7.900000e-01	0.000000e+00	0.0	8.000000e-01	0.000000e+00	0.0	8.100000e-01	0.000000e+00	0.0	8.200000e-01	0.000000e+00	0.0	8.300000e-01	0.000000e+00	0.0	8.400000e-01	0.000000e+00	0.0	8.500000e-01	0.000000e+00	0.0	8.600000e-01	0.000000e+00	0.0	8.700000e-01	0.000000e+00	0.0	8.800000e-01	0.000000e+00	0.0	8.900000e-01	0.000000e+00	0.0	9.000000e-01	0.000000e+00	0.0	9.100000e-01	0.000000e+00	0.0	9.200000e-01	0.000000e+00	0.0	9.300000e-01	0.000000e+00	0.0	9.400000e-01	0.000000e+00	0.0	9.500000e-01	0.000000e+00	0.0	9.600000e-01	0.000000e+00	0.0	9.700000e-01	0.000000e+00	0.0	9.800000e-01	0.000000e+00	0.0	9.900000e-01	0.000000e+00	0.0	1.000000e+00	0.000000e+00	0.0	0.000000e+00	1.000000e-02	0.0	1.000000e-02	1.000000e-02	0.0	2.000000e-02	1.000000e-02	0.0	3.000000e-02	1.000000e-02	0.0	4.000000e-02	1.000000e-02	0.0	5.000000e-02	1.000000e-02	0.0	6.000000e-02	1.000000e-02	0.0	7.000000e-02	1.000000e-02	0.0	8.000000e-02	1.000000e-02	0.0	9.000000e-02	1.000000e-02	0.0	1.000000e-01	1.000000e-02	0.0	1.100000e-01	1.000000e-02	0.0	1.200000e-01	1.000000e-02	0.0	1.300000e-01	1.000000e-02	0.0	1.400000e-01	1.000000e-02	0.0	1.500000e-01	1.000000e-02	0.0	1.600000e-01	1.000000e-02	0.0	1.700000e-01	1.000000e-02	0.0	1.800000e-01	1.000000e-02	0.0	1.900000e-01	1.000000e-02	0.0	2.000000e-01	1.000000e-02	0.0	2.100000e-01	1.000000e-02	0.0	2.200000e-01	1.000000e-02	0.0	2.300000e-01	1.000000e-02	0.0	2.400000e-01	1.000000e-02	0.0	2.500000e-01	1.000000e-02	0.0	2.600000e-01	1.000000e-02	0.0	2.700000e-01	1.000000e-02	0.0	2.800000e-01	1.000000e-02	0.0	2.900000e-01	1.000000e-02	0.0	3.000000e-01	1.000000e-02	0.0	3.100000e-01	1.000000e-02	0.0	3.200000e-01	1.000000e-02	0.0	3.300000e-01	1.000000e-02	0.0	3.400000e-01	1.000000e-02	0.0	3.500000e-01	1.000000e-02	0.0	3.600000e-01	1.000000e-02	0.0	3.700000e-01	1.000000e-02	0.0	3.800000e-01	1.000000e-02	0.0	3.900000e-01	1.000000e-02	0.0	4.000000e-01	1.000000e-02	0.0	4.100000e-01	1.000000e-02	0.0	4.200000e-01	1.000000e-02	0.0	4.300000e-01	1.000000e-02	0.0	4.400000e-01	1.000000e-02	0.0	4.500000e-01	1.000000e-02	0.0	4.600000e-01	1.000000e-02	0.0	4.700000e-01	1.000000e-02	0.0	4.800000e-01	1.000000e-02	0.0	4.900000e-01	1.000000e-02	0.0	5.000000e-01	1.000000e-02	0.0	5.100000e-01	1.000000e-02	0.0	5.200000e-01	1.000000e-02	0.0	5.300000e-01	1.000000e-02	0.0	5.400000e-01	1.000000e-02	0.0	5.500000e-01	1.000000e-02	0.0	5.600000e-01	1.000000e-02	0.0	5.700000e-01	1.000000e-02	0.0	5.800000e-01	1.000000e-02	0.0	5.900000e-01	1.000000e-02	0.0	6.000000e-01	1.000000e-02	0.0	6.100000e-01	1.000000e-02	0.0	6.200000e-01	1.000000e-02	0.0	6.300000e-01	1.000000e-02	0.0	6.400000e-01	1.000000e-02	0.0	6.500000e-01	1.000000e-02	0.0	6.600000e-01	1.000000e-02	0.0	6.700000e-01	1.000000e-02	0.0	6.800000e-01	1.000000e-02	0.0	6.900000e-01	1.000000e-02	0.0	7.000000e-01	1.000000e-02	0.0	7.100000e-01	1.000000e-02	0.0	7.200000e-01	1.000000e-02	0.0	7.300000e-01	1.000000e-02	0.0	7.400000e-01	1.000000e-02	0.0	7.500000e-01	1.000000e-02	0.0	7.600000e-01	1.000000e-02	0.0	7.700000e-01	1.000000e-02	0.0	7.800000e-01	1.000000e-02	0.0	7.900000e-01	1.000000e-02	0.0	8.000000e-01	1.000000e-02	0.0	8.100000e-01	1.000000e-02	0.0	8.200000e-01	1.000000e-02	0.0	8.300000e-01	1.000000e-02	0.0	8.400000e-01	1.000000e-02	0.0	8.500000e-01	1.000000e-02	0.0	8.600000e-01	1.000000e-02	0.0	8.700000e-01	1.000000e-02	0.0	8.800000e-01	1.000000e-02	0.0	8.900000e-01	1.000000e-02	0.0	9.000000e-01	1.000000e-02	0.0	9.100000e-01	1.000000e-02	0.0	9.200000e-01	1.000000e-02	0.0	9.300000e-01	1.000000e-02	0.0	9.400000e-01	1.000000e-02	0.0	9.500000e-01	1.000000e-02	0.0	9.600000e-01	1.000000e-02	0.0	9.700000e-01	1.000000e-02	0.0	9.800000e-01	1.000000e-02	0.0	9.900000e-01	1.000000e-02	0.0	1.000000e+00	1.000000e-02	0.0	0.000000e+00	2.000000e-02	0.0	1.000000e-02	2.000000e-02	0.0	2.000000e-02	2.000000e-02	0.0	3.000000e-02	2.000000e-02	0.0	4.000000e-02	2.000000e-02	0.0	5.000000e-02	2.000000e-02	0.0	6.000000e-02	2.000000e-02	0.0	7.000000e-02	2.000000e-02	0.0	8.000000e-02	2.000000e-02	0.0	9.000000e-02	2.000000e-02	0.0	1.000000e-01	2.000000e-02	0.0	1.100000e-01	2.000000e-02	0.0	1.200000e-01	2.000000e-02	0.0	1.300000e-01	2.000000e-02	0.0	1.400000e-01	2.000000e-02	0.0	1.500000e-01	2.000000e-02	0.0	1.600000e-01	2.000000e-02	0.0	1.700000e-01	2.000000e-02	0.0	1.800000e-01	2.000000e-02	0.0	1.900000e-01	2.000000e-02	0.0	2.000000e-01	2.000000e-02	0.0	2.100000e-01	2.000000e-02	0.0	2.200000e-01	2.000000e-02	0.0	2.300000e-01	2.000000e-02	0.0	2.400000e-01	2.000000e-02	0.0	2.500000e-01	2.000000e-02	0.0	2.600000e-01	2.000000e-02	0.0	2.700000e-01	2.000000e-02	0.0	2.800000e-01	2.000000e-02	0.0	2.900000e-01	2.000000e-02	0.0	3.000000e-01	2.000000e-02	0.0	3.100000e-01	2.000000e-02	0.0	3.200000e-01	2.000000e-02	0.0	3.300000e-01	2.000000e-02	0.0	3.400000e-01	2.000000e-02	0.0	3.500000e-01	2.000000e-02	0.0	3.600000e-01	2.000000e-02	0.0	3.700000e-01	2.000000e-02	0.0	3.800000e-01	2.000000e-02	0.0	3.900000e-01	2.000000e-02	0.0	4.000000e-01	2.000000e-02	0.0	4.100000e-01	2.000000e-02	0.0	4.200000e-01	2.000000e-02	0.0	4.300000e-01	2.000000e-02	0.0	4.400000e-01	2.000000e-02	0.0	4.500000e-01	2.000000e-02	0.0	4.600000e-01	2.000000e-02	0.0	4.700000e-01	2.000000e-02	0.0	4.800000e-01	2.000000e-02	0.0	4.900000e-01	2.000000e-02	0.0	5.000000e-01	2.000000e-02	0.0	5.100000e-01	2.000000e-02	0.0	5.200000e-01	2.000000e-02	0.0	5.300000e-01	2.000000e-02	0.0	5.400000e-01	2.000000e-02	0.0	5.500000e-01	2.000000e-02	0.0	5.600000e-01	2.000000e-02	0.0	5.700000e-01	2.000000e-02	0.0	5.800000e-01	2.000000e-02	0.0	5.900000e-01	2.000000e-02	0.0	6.000000e-01	2.000000e-02	0.0	6.100000e-01	2.000000e-02	0.0	6.200000e-01	2.000000e-02	0.0	6.300000e-01	2.000000e-02	0.0	6.400000e-01	2.000000e-02	0.0	6.500000e-01	2.000000e-02	0.0	6.600000e-01	2.000000e-02	0.0	6.700000e-01	2.000000e-02	0.0	6.800000e-01	2.000000e-02	0.0	6.900000e-01	2.000000e-02	0.0	7.000000e-01	2.000000e-02	0.0	7.100000e-01	2.000000e-02	0.0	7.200000e-01	2.000000e-02	0.0	7.300000e-01	2.000000e-02	0.0	7.400000e-01	2.000000e-02	0.0	7.500000e-01	2.000000e-02	0.0	7.600000e-01	2.000000e-02	0.0	7.700000e-01	2.000000e-02	0.0	7.800000e-01	2.000000e-02	0.0	7.900000e-01	2.000000e-02	0.0	8.000000e-01	2.000000e-02	0.0	8.100000e-01	2.000000e-02	0.0	8.200000e-01	2.000000e-02	0.0	8.300000e-01	2.000000e-02	0.0	8.400000e-01	2.000000e-02	0.0	8.500000e-01	2.000000e-02	0.0	8.600000e-01	2.000000e-02	0.0	8.700000e-01	2.000000e-02	0.0	8.800000e-01	2.000000e-02	0.0	8.900000e-01	2.000000e-02	0.0	9.000000e-01	2.000000e-02	0.0	9.100000e-01	2.000000e-02	0.0	9.200000e-01	2.000000e-02	0.0	9.300000e-01	2.000000e-02	0.0	9.400000e-01	2.000000e-02	0.0	9.500000e-01	2.000000e-02	0.0	9.600000e-01	2.000000e-02	0.0	9.700000e-01	2.000000e-02	0.0	9.800000e-01	2.000000e-02	0.0	9.900000e-01	2.000000e-02	0.0	1.000000e+00	2.000000e-02	0.0	0.000000e+00	3.000000e-02	0.0	1.000000e-02	3.000000e-02	0.0	2.000000e-02	3.000000e-02	0.0	3.000000e-02	3.000000e-02	0.0	4.000000e-02	3.000000e-02	0.0	5.000000e-02	3.000000e-02	0.0	6.000000e-02	3.000000e-02	0.0	7.000000e-02	3.000000e-02	0.0	8.000000e-02	3.000000e-02	0.0	9.000000e-02	3.000000e-02	0.0	1.000000e-01	3.000000e-02	0.0	1.100000e-01	3.000000e-02	0.0	1.200000e-01	3.000000e-02	0.0	1.300000e-01	3.000000e-02	0.0	1.400000e-01	3.000000e-02	0.0	1.500000e-01	3.000000e-02	0.0	1.600000e-01	3.000000e-02	0.0	1.700000e-01	3.000000e-02	0.0	1.800000e-01	3.000000e-02	0.0	1.900000e-01	3.000000e-02	0.0	2.000000e-01	3.000000e-02	0.0	2.100000e-01	3.000000e-02	0.0	2.200000e-01	3.000000e-02	0.0	2.300000e-01	3.000000e-02	0.0	2.400000e-01	3.000000e-02	0.0	2.500000e-01	3.000000e-02	0.0	2.600000e-01	3.000000
[...]
POINT_DATA 10201

SCALARS Height double 1
LOOKUP_TABLE default
9.970799e-01	9.970810e-01	9.970885e-01	9.970692e-01	9.970529e-01	9.970302e-01	9.969996e-01	9.969629e-01	9.969239e-01	9.968798e-01	9.968303e-01	9.967761e-01	9.967161e-01	9.966509e-01	9.965795e-01	9.965005e-01	9.964123e-01	9.963139e-01	9.961988e-01	9.960678e-01	9.959119e-01	9.957251e-01	9.955089e-01	9.952624e-01	9.949819e-01	9.946546e-01	9.942495e-01	9.937075e-01	9.929307e-01	9.917916e-01	9.901929e-01	9.881786e-01	9.860171e-01	9.841443e-01	9.828942e-01	9.823094e-01	9.822553e-01	9.830043e-01	9.853745e-01	9.895727e-01	9.953460e-01	1.002213e+00	1.009638e+00	1.016959e+00	1.023331e+00	1.027915e+00	1.030419e+00	1.031056e+00	1.029825e+00	1.024414e+00	1.014956e+00	1.005923e+00	1.000655e+00	9.984998e-01	9.977906e-01	9.975790e-01	9.975073e-01	9.974631e-01	9.974053e-01	9.973115e-01	9.971728e-01	9.969931e-01	9.967802e-01	9.965391e-01	9.962695e-01	9.959623e-01	9.955894e-01	9.950954e-01	9.943873e-01	9.933352e-01	9.918199e-01	9.898492e-01	9.876583e-01	9.856850e-01	9.843057e-01	9.835869e-01	9.834451e-01	9.839661e-01	9.860183e-01	9.899504e-01	9.955985e-01	1.002501e+00	1.010089e+00	1.017669e+00	1.024365e+00	1.029299e+00	1.032110e+00	1.032949e+00	1.032003e+00	1.027036e+00	1.017727e+00	1.008499e+00	1.003084e+00	1.000922e+00	1.000247e+00	1.000062e+00	1.000015e+00	1.000004e+00	1.000001e+00	1.000000e+00	1.000000e+00	9.970810e-01	9.970757e-01	9.970836e-01	9.970648e-01	9.970476e-01	9.970237e-01	9.969932e-01	9.969565e-01	9.969163e-01	9.968704e-01	9.968187e-01	9.967621e-01	9.967000e-01	9.966325e-01	9.965586e-01	9.964768e-01	9.963854e-01	9.962835e-01	9.961651e-01	9.960291e-01	9.958709e-01	9.956840e-01	9.954693e-01	9.952244e-01	9.949446e-01	9.946161e-01	9.942084e-01	9.936594e-01	9.928706e-01	9.917193e-01	9.901094e-01	9.880865e-01	9.859075e-01	9.839732e-01	9.826922e-01	9.822599e-01	9.822943e-01	9.830431e-01	9.853787e-01	9.895996e-01	9.954069e-01	1.002318e+00	1.009772e+00	1.017117e+00	1.023611e+00	1.028429e+00	1.030704e+00	1.030977e+00	1.029810e+00	1.024716e+00	1.015272e+00	1.005720e+00	1.000228e+00	9.982345e-01	9.976819e-01	9.975359e-01	9.974832e-01	9.974434e-01	9.973870e-01	9.972939e-01	9.971545e-01	9.969726e-01	9.967571e-01	9.965135e-01	9.962410e-01	9.959294e-01	9.955508e-01	9.950484e-01	9.943287e-01	9.932649e-01	9.917404e-01	9.897608e-01	9.875535e-01	9.855242e-01	9.840873e-01	9.835008e-01	9.834625e-01	9.840065e-01	9.860227e-01	9.899752e-01	9.956527e-01	1.002602e+00	1.010222e+00	1.017825e+00	1.024630e+00	1.029817e+00	1.032476e+00	1.032886e+00	1.031985e+00	1.027336e+00	1.018110e+00	1.008330e+00	1.002645e+00	1.000654e+00	1.000147e+00	1.000032e+00	1.000007e+00	1.000002e+00	1.000000e+00	1.000000e+00	1.000000e+00	9.970885e-01	9.970836e-01	9.970942e-01	9.970741e-01	9.970562e-01	9.970316e-01	9.970000e-01	9.969616e-01	9.969205e-01	9.968742e-01	9.968224e-01	9.967658e-01	9.967032e-01	9.966349e-01	9.965599e-01	9.964772e-01	9.963856e-01	9.962857e-01	9.961663e-01	9.960305e-01	9.958727e-01	9.956843e-01	9.954683e-01	9.952218e-01	9.949380e-01	9.946017e-01	9.941806e-01	9.936076e-01	9.927853e-01	9.916073e-01	9.900102e-01	9.880503e-01	9.859412e-01	9.840541e-01	9.829124e-01	9.826196e-01	9.826728e-01	9.834522e-01	9.857402e-01	9.898971e-01	9.956057e-01	1.002370e+00	1.009656e+00	1.016910e+00	1.023481e+00	1.028221e+00	1.030061e+00	1.030248e+00	1.029107e+00	1.024478e+00	1.015628e+00	1.006171e+00	1.000433e+00	9.982824e-01	9.976913e-01	9.975361e-01	9.974799e-01	9.974389e-01	9.973832e-01	9.972924e-01	9.971555e-01	9.969745e-01	9.967589e-01	9.965148e-01	9.962394e-01	9.959198e-01	9.955276e-01	9.950031e-01	9.942531e-01	9.931622e-01	9.916449e-01	9.897186e-01	9.875796e-01	9.855863e-01	9.842601e-01	9.838408e-01	9.838288e-01	9.844157e-01	9.864140e-01	9.903041e-01	9.958996e-01	1.002682e+00	1.010111e+00	1.017594e+00	1.024469e+00	1.029629e+00	1.031849e+00	1.032141e+00	1.031243e+00	1.027053e+00	1.018445e+00	1.008809e+00	1.002836e+00	1.000664e+00	1.000129e+00	1.000024e+00	1.000005e+00	1.000001e+00	1.000000e+00	1.000000e+00	1.000000e+00	9.970692e-01	9.970648e-01	9.970741e-01	9.970553e-01	9.970378e-01	9.970137e-01	9.969831e-01	9.969455e-01	9.969051e-01	9.968602e-01	9.968099e-01	9.967543e-01	9.966918e-01	9.966226e-01	9.965462e-01	9.964619e-01	9.963683e-01	9.962647e-01	9.961444e-01	9.960046e-01	9.958441e-01	9.956533e-01	9.954350e-01	9.951854e-01	9.948958e-01	9.945470e-01	9.940997e-01	9.934847e-01	9.926044e-01	9.913676e-01	9.897500e-01	9.878097e-01	9.857516e-01	9.840293e-01	9.831581e-01	9.829634e-01	9.830794e-01	9.839768e-01	9.863702e-01	9.905040e-01	9.961276e-01	1.002717e+00	1.009842e+00	1.017088e+00	1.023668e+00	1.027978e+00	1.029404e+00	1.029469e+00	1.028266e+00	1.023826e+00	1.015495e+00	1.006528e+00	1.000800e+00	9.984548e-01	9.977328e-01	9.975326e-01	9.974614e-01	9.974140e-01	9.973555e-01	9.972645e-01	9.971283e-01	9.969473e-01	9.967301e-01	9.964827e-01	9.962011e-01	9.958689e-01	9.954514e-01	9.948893e-01	9.940864e-01	9.929386e-01	9.913900e-01	9.894754e-01	9.873700e-01	9.855060e-01	9.844571e-01	9.841693e-01	9.842165e-01	9.849223e-01	9.870576e-01	9.909674e-01	9.964777e-01	1.003084e+00	1.010321e+00	1.017762e+00	1.024672e+00	1.029464e+00	1.031209e+00	1.031369e+00	1.030403e+00	1.026383e+00	1.018327e+00	1.009185e+00	1.003191e+00	1.000811e+00	1.000166e+00	1.000030e+00	1.000005e+00	1.000001e+00	1.000000e+00	1.000000e+00	1.000000e+00	9.970529e-01	9.970476e-01	9.970562e-01	9.970378e-01	9.970198e-01	9.969952e-01	9.969646e-01	9.969265e-01	9.968853e-01	9.968405e-01	9.967907e-01	9.967351e-01	9.966720e-01	9.966013e-01	9.965231e-01	9.964367e-01	9.963407e-01	9.962337e-01	9.961111e-01	9.959673e-01	9.958039e-01	9.956101e-01	9.953887e-01	9.951352e-01	9.948373e-01	9.944677e-01	9.939776e-01	9.933027e-01	9.923506e-01	9.910497e-01	9.893920e-01	9.874671e-01	9.855378e-01	9.841244e-01	9.835201e-01	9.834343e-01	9.836234e-01	9.846760e-01	9.872081e-01	9.913653e-01	9.968311e-01	1.003186e+00	1.010157e+00	1.017391e+00	1.023745e+00	1.027452e+00	1.028497e+00	1.028485e+00	1.027213e+00	1.022872e+00	1.015156e+00	1.006922e+00	1.001341e+00	9.987484e-01	9.978302e-01	9.975434e-01	9.974429e-01	9.973842e-01	9.973208e-01	9.972284e-01	9.970930e-01	9.969130e-01	9.966943e-01	9.964420e-01	9.961509e-01	9.957992e-01	9.953453e-01	9.947270e-01	9.938560e-01	9.926416e-01	9.910413e-01	9.891204e-01	9.871062e-01	9.855304e-01	9.847895e-01	9.846250e-01	9.847417e-01	9.856070e-01	9.879102e-01	9.918845e-01	9.972593e-01	1.003617e+00	1.010665e+00	1.018078e+00	1.024804e+00	1.028988e+00	1.030316e+00	1.030383e+00	1.029346e+00	1.025422e+00	1.017972e+00	1.009585e+00	1.003728e+00	1.001080e+00	1.000245e+00	1.000046e+00	1.000008e+00	1.000001e+00	1.000000e+00	1.000000e+00	1.000000e+00	9.970302e-01	9.970237e-01	9.970316e-01	9.970137e-01	9.969952e-01	9.969704e-01	9.969404e-01	9.969030e-01	9.968616e-01	9.968173e-01	9.967678e-01	9.967117e-01	9.966475e-01	9.965751e-01	9.964945e-01	9.964052e-01	9.963055e-01	9.961941e-01	9.960673e-01	9.959190e-01	9.957514e-01	9.955534e-01	9.953276e-01	9.950669e-01	9.947539e-01	9.943528e-01	9.938131e-01	9.930522e-01	9.920035e-01	9.906270e-01	9.889322e-01	9.870484e-01	9.853570e-01	9.843366e-01	9.839921e-01	9.839844e-01	9.843091e-01	9.855686e-01	9.882791e-01	9.924452e-01	9.977137e-01	1.003820e+00	1.010657e+00	1.017765e+00	1.023640e+00	1.026726e+00	1.027429e+00	1.027333e+00	1.025924e+00	1.021655e+00	1.014638e+00	1.007310e+00	1.002012e+00	9.991691e-01	9.979804e-01	9.975655e-01	9.974200e-01	9.973451e-01	9.972749e-01	9.971806e-01	9.970455e-01	9.968661e-01	9.966461e-01	9.963872e-01	9.960814e-01	9.957020e-01	9.952013e-01	9.945046e-01	9.935352e-01	9.922334e-01	9.905806e-01	9.886634e-01	9.868507e-01	9.856719e-01	9.852147e-01	9.851719e-01	9.853996e-01	9.864864e-01	9.890000e-01	9.930289e-01	9.982324e-01	1.004326e+00	1.011202e+00	1.018499e+00	1.024792e+00	1.028326e+00	1.029248e+00	1.029227e+00	1.028069e+00	1.024207e+00	1.017439e+00	1.009973e+00	1.004410e+00	1.001485e+00	1.000380e+00	1.000076e+00	1.000013e+00	1.000002e+00	1.000000e+00	1.000000e+00	1.000000e+00	9.969996e-01	9.969933e-01	9.970000e-01	9.969831e-01	9.969646e-01	9.969404e-01	9.969119e-01	9.968763e-01	9.968355e-01	9.967912e-01	9.967410e-01	9.966837e-01	9.966182e-01	9.965439e-01	9.964603e-01	9.963668e-01	9.962622e-01	9.961452e-01	9.960124e-01	9.958590e-01	9.956860e-01	9.954825e-01	9.952496e-01	9.949772e-01	9.946412e-01	9.942009e-01	9.935862e-01	9.927272e-01	9.915682e-01	9.900944e-01	9.883632e-01	9.866105e-01	9.852795e-01	9.846614e-01	9.845581e-01	9.846290e-01	9.851458e-01	9.866721e-01	9.895670e-01	9.937115e-01	9.987693e-01	1.004635e+00	1.011298e+00	1.018097e+00	1.023310e+00	1.025743e+00	1.026194e+00	1.026006e+00	1.024423e+00	1.020264e+00	1.014035e+00	1.007694e+00	1.002772e+00	9.997036e-01	9.981936e-01	9.976044e-01	9.973945e-01	9.972967e-01	9.972174e-01	9.971199e-01	9.969847e-01	9.968048e-01	9.965823e-01	9.963151e-01	9.959897e-01	9.955720e-01	9.950046e-01	9.942138e-01	9.931302e-01	9.917137e-01	9.899924e-01	9.881629e-01	9.866819e-01	9.859365e-01	9.857584e-01	9.857966e-01	9.862144e-01	9.875784e-01	9.903154e-01	9.943672e-01	9.993826e-01	1.005212e+00	1.011901e+00	1.018909e+00	1.024558e+00	1.027407e+00	1.028018e+00	1.027906e+00	1.026586e+00	1.022808e+00	1.016787e+00	1.010344e+00	1.005188e+00	1.002013e+00	1.000579e+00	1.000124e+00	1.000021e+00	1.000003e+00	1.000000e+00	1.000000e+00	1.000000e+00	9.969629e-01	9.969565e-01	9.969616e-01	9.969455e-01	9.969265e-01	9.969030e-01	9.968763e-01	9.968430e-01	9.968034e-01	9.967595e-01	9.967089e-01	9.966506e-01	9.965843e-01	9.965085e-01	9.964220e-01	9.963242e-01	9.962140e-01	9.960903e-01	9.959517e-01	9.957906e-01	9.956095e-01	9.953976e-01	9.951546e-01	9.948659e-01	9.944969e-01	9.939932e-01	9.932862e-01	9.923085e-01	9.910218e-01	9.894468e-01	9.877247e-01	9.862212e-01	9.853836e-01	9.851408e-01	9.851675e-01	9.853828e-01	9.861776e-01	9.880032e-01	9.910524e-01	9.951360e-01	9.999994e-01	1.005632e+00	1.012007e+00	1.018287e+00	1.022752e+00	1.024546e+00	1.024793e+00	1.024490e+00	1.022730e+00	1.018774e+00	1.013406e+00	1.008069e+00	1.003577e+00	1.000326e+00	9.984683e-01	9.976659e-01	9.973718e-01	9.972441e-01	9.971524e-01	9.970498e-01	9.969127e-01	9.967310e-01	9.965027e-01	9.962235e-01	9.958683e-01	9.953972e-01	9.947427e-01	9.938317e-01	9.926099e-01	9.910694e-01	9.893102e-01	9.876924e-01	9.866988e-01	9.863536e-01	9.863584e-01	9.865241e-01	9.872157e-01	9.889045e-01	9.918392e-01	9.958680e-01	1.000706e+00	1.006297e+00	1.012689e+00	1.019205e+00	1.024093e+00	1.026265e+00	1.026620e+00	1.026412e+00	1.024928e+00	1.021302e+00	1.016100e+00	1.010693e+00	1.006013e+00	1.002642e+00	1.000842e+00	1.000193e+00	1.000034e+00	1.000005e+00	1.000001e+00	1.000000e+00	1.000000e+00	9.969239e-01	9.969163e-01	9.969205e-01	9.969051e-01	9.968853e-01	9.968616e-01	9.968355e-01	9.968034e-01	9.967640e-01	9.967196e-01	9.966681e-01	9.966084e-01	9.965407e-01	9.964632e-01	9.963747e-01	9.962735e-01	9.961581e-01	9.960278e-01	9.958804e-01	9.957140e-01	9.955225e-01	9.953019e-01	9.950457e-01	9.947301e-01	9.943120e-01	9.937275e-01	9.929018e-01	9.917788e-01	9.903442e-01	9.886757e-01	9.870739e-01	9.860257e-01	9.856705e-01	9.856885e-01	9.858292e-01	9.862974e-01	9.874367e-01	9.895603e-01	9.927107e-01	9.967005e-01	1.001389e+00	1.006781e+00	1.012702e+00	1.018237e+00	1.021890e+00	1.023137e+00	1.023232e+00	1.022787e+00	1.020897e+00	1.017264e+00	1.012813e+00	1.008434e+00	1.004386e+00	1.001001e+00	9.987891e-01	9.977430e-01	9.973473e-01	9.971844e-01	9.970802e-01	9.969721e-01	9.968319e-01	9.966473e-01	9.964107e-01	9.961095e-01	9.957155e-01	9.951696e-01	9.944004e-01	9.933417e-01	9.919567e-01	9.902916e-01	9.886048e-01	9.873820e-01	9.869143e-01	9.868876e-01	9.869951e-01	9.874010e-01	9.884445e-01	9.904662e-01	9.935489e-01	9.975116e-01	1.002186e+00	1.007549e+00	1.013488e+00	1.019270e+00	1.023356e+00	1.024900e+00	1.025079e+00	1.024748e+00	1.023129e+00	1.019772e+00	1.015443e+00	1.011030e+00	1.006848e+00	1.003341e+00	1.001163e+00	1.000283e+00	1.000052e+00	1.000008e+00	1.000001e+00	1.000000e+00	1.000000e+00	9.968798e-01	9.968704e-01	9.968742e-01	9.968602e-01	9.968405e-01	9.968173e-01	9.967912e-01	9.967595e-01	9.967196e-01	9.966743e-01	9.966214e-01	9.965592e-01	9.964883e-01	9.964071e-01	9.963145e-01	9.962082e-01	9.960876e-01	9.959505e-01	9.957944e-01	9.956205e-01	9.954197e-01	9.951872e-01	9.949112e-01	9.945584e-01	9.940740e-01	9.933829e-01	9.924108e-01	9.911107e-01	9.895108e-01	9.878268e-01	9.865732e-01	9.861311e-01	9.861059e-01	9.862458e-01	9.866180e-01	9.874244e-01	9.889368e-01	9.913219e-01	9.945190e-01	9.983938e-01	1.002908e+00	1.007996e+00	1.013293e+00	1.017901e+00	1.020721e+00	1.021530e+00	1.021510e+00	1.020917e+00	1.018996e+00	1.015832e+00	1.012310e+00	1.008804e+00	1.005177e+00	1.001694e+00	9.991392e-01	9.978301e-01	9.973181e-01	9.971124e-01	9.969907e-01	9.968760e-01	9.967352e-01	9.965486e-01	9.963018e-01	9.959713e-01	9.955146e-01	9.948677e-01	9.939539e-01	9.927133e-01	9.911431e-01	9.894001e-01	9.879916e-01	9.874071e-01	9.873148e-01	9.874218e-01	9.877445e-01	9.884839e-01	9.899192e-01	9.922449e-01	9.954196e-01	9.992905e-01	1.003795e+00	1.008881e+00	1.014218e+00	1.019032e+00	1.022262e+00	1.023338e+00	1.023376e+00	1.022928e+00	1.021258e+00	1.018308e+00	1.014875e+00	1.011368e+00	1.007667e+00	1.004075e+00	1.001529e+00	1.000392e+00	1.000074e+00	1.000011e+00	1.000002e+00	1.000000e+00	1.000000e+00	9.968303e-01	9.968187e-01	9.968224e-01	9.968099e-01	9.967907e-01	9.967678e-01	9.967410e-01	9.967089e-01	9.966681e-01	9.966214e-01	9.965671e-01	9.965028e-01	9.964283e-01	9.963430e-01	9.962457e-01	9.961339e-01	9.960061e-01	9.958604e-01	9.956945e-01	9.955108e-01	9.952986e-01	9.950501e-01	9.947441e-01	9.943355e-01	9.937578e-01	9.929273e-01	9.917685e-01	9.902521e-01	9.885119e-01	9.870753e-01	9.864776e-01	9.864085e-01	9.865490e-01	9.869066e-01	9.875989e-01	9.887983e-01	9.906739e-01	9.932587e-01	9.964567e-01	1.000202e+00	1.004503e+00	1.009183e+00	1.013669e+00	1.017224e+00	1.019234e+00	1.019736e+00	1.019620e+00	1.018921e+00	1.017111e+00	1.014562e+00	1.011934e+00	1.009180e+00	1.005929e+00	1.002375e+00	9.995008e-01	9.979260e-01	9.972875e-01	9.970333e-01	9.968914e-01	9.967665e-01	9.966192e-01	9.964249e-01	9.961588e-01	9.957845e-01	9.952445e-01	9.944635e-01	9.933641e-01	9.918959e-01	9.901388e-01	9.885660e-01	9.877913e-01	9.876441e-01	9.877468e-01	9.880473e-01	9.886801e-01	9.898151e-01	9.916406e-01	9.942131e-01	9.974303e-01	1.001193e+00	1.005490e+00	1.010193e+00	1.014765e+00	1.018497e+00	1.020829e+00	1.021583e+00	1.021525e+00	1.020979e+00	1.019396e+00	1.017000e+00	1.014436e+00	1.011717e+00	1.008446e+00	1.004808e+00	1.001921e+00	1.000518e+00	1.000101e+00	1.000016e+00	1.000002e+00	1.000000e+00	1.000000e+00	9.967761e-01	9.967621e-01	9.967658e-01	9.967543e-01	9.967351e-01	9.967117e-01	9.966837e-01	9.966506e-01	9.966084e-01	9.965592e-01	9.965028e-01	9.964361e-01	9.963583e-01	9.962688e-01	9.961664e-01	9.960488e-01	9.959132e-01	9.957582e-01	9.955828e-01	9.953854e-01	9.951608e-01	9.948913e-01	9.945378e-01	9.940466e-01	9.933378e-01	9.923180e-01	9.909057e-01	9.891602e-01	9.875528e-01	9.867432e-01	9.866304e-01	9.867393e-01	9.870772e-01	9.877416e-01	9.888221e-01	9.904356e-01	9.926310e-01	9.953459e-01	9.985073e-01	1.002103e+00	1.006102e+00	1.010203e+00	1.013699e+00	1.016154e+00	1.017408e+00	1.017750e+00	1.017577e+00	1.016868e+00	1.015361e+00	1.013516e+00	1.011702e+00	1.009562e+00	1.006619e+00	1.003010e+00	9.998508e-01	9.980223e-01	9.972540e-01	9.969470e-01	9.967825e-01	9.966460e-01	9.964900e-01	9.962813e-01	9.959820e-01	9.955394e-01	9.948805e-01	9.939175e-01	9.925642e-01	9.908321e-01	9.891024e-01	9.881070e-01	9.878979e-01	9.879648e-01	9.882438e-01	9.888433e-01	9.898587e-01	9.914162e-01	9.935945e-01	9.963464e-01	9.995668e-01	1.003199e+00	1.007210e+00	1.011335e+00	1.014960e+00	1.017580e+00	1.019041e+00	1.019616e+00	1.019528e+00	1.018975e+00	1.017653e+00	1.015913e+00	1.014157e+00	1.012078e+00	1.009172e+00	1.005506e+00	1.002319e+00	1.000654e+00	1.000132e+00	1.000022e+00	1.000003e+00	1.000000e+00	1.000000e+00	9.967161e-01	9.967000e-01	9.967032e-01	9.966918e-01	9.966720e-01	9.966475e-01	9.966182e-01	9.965843e-01	9.965407e-01	9.964883e-01	9.964283e-01	9.963583e-01	9.962771e-01	9.961831e-01	9.960745e-01	9.959491e-01	9.958040e-01	9.956377e-01	9.954522e-01	9.952442e-01	9.950006e-01	9.946910e-01	9.942711e-01	9.936639e-01	9.927717e-01	9.914792e-01	9.897628e-01	9.879960e-01	9.869746e-01	9.867936e-01	9.868523e-01	9.871385e-01	9.877684e-01	9.888108e-01	9.903208e-01	9.923279e-01	9.947761e-01	9.975593e-01	1.000647e+00	1.004056e+00	1.007612e+00	1.010873e+00	1.013370e+00	1.014729e+00	1.015314e+00	1.015532e+00	1.015404e+00	1.014878e+00	1.013869e+00	1.012742e+00	1.011579e+00	1.009935e+00	1.007232e+00	1.003570e+00	1.000169e+00	9.981100e-01	9.972138e-01	9.968506e-01	9.966610e-01	9.965101e-01	9.963400e-01	9.961062e-01	9.957544e-01	9.952113e-01	9.943814e-01	9.931556e-01	9.914766e-01	9.896233e-01	9.884027e-01	9.880924e-01	9.881076e-01	9.883352e-01	9.888960e-01	9.898719e-01	9.913171e-01	9.932847e-01	9.957553e-01	9.986232e-01	1.001806e+00	1.005266e+00	1.008848e+00	1.012180e+00	1.014762e+00	1.016303e+00	1.017011e+00	1.017386e+00	1.017405e+00	1.017017e+00	1.016160e+00	1.015105e+00	1.014001e+00	1.012446e+00	1.009830e+00	1.006144e+00	1.002700e+00	1.000794e+00	1.000166e+00	1.000028e+00	1.000004e+00	1.000001e+00	1.000000e+00	9.966509e-01	9.966326e-01	9.966349e-01	9.966226e-01	9.966013e-01	9.965751e-01	9.965439e-01	9.965085e-01	9.964632e-01	9.964071e-01	9.963430e-01	9.962688e-01	9.961831e-01	9.960839e-01	9.959681e-01	9.958330e-01	9.956770e-01	9.954999e-01	9.953021e-01	9.950759e-01	9.947998e-01	9.944327e-01	9.939139e-01	9.931362e-01	9.919692e-01	9.903142e-01	9.884354e-01	9.872027e-01	9.869089e-01	9.869329e-01	9.871449e-01	9.876972e-01	9.886952e-01	9.901691e-01	9.921092e-01	9.944470e-01	9.970637e-01	9.998655e-01	1.002844e+00	1.005967e+00	1.008899e+00	1.011073e+00	1.012434e+00	1.012932e+00	1.013038e+00	1.013077e+00	1.013215e+00	1.013082e+00	1.012708e+00	1.012233e+00	1.011578e+00	1.010286e+00	1.007750e+00	1.004035e+00	1.000438e+00	9.981825e-01	9.971654e-01	9.967439e-01	9.965254e-01	9.963548e-01	9.961612e-01	9.958849e-01	9.954494e-01	9.947512e-01	9.936601e-01	9.920636e-01	9.901450e-01	9.887124e-01	9.882486e-01	9.882249e-01	9.883771e-01	9.888533e-01	9.897791e-01	9.911858e-01	9.930705e-01	9.953995e-01	9.980840e-01	1.001012e+00	1.004113e+00	1.007312e+00	1.010284e+00	1.012525e+00	1.014015e+00	1.014625e+00	1.014816e+00	1.014933e+00	1.015202e+00	1.015266e+00	1.014982e+00	1.014582e+00	1.013986e+00	1.012808e+00	1.010405e+00	1.006702e+00	1.003051e+00	1.000932e+00	1.000202e+00	1.000035e+00	1.000005e+00	1.000001e+00	1.000000e+00	9.965795e-01	9.965586e-01	9.965599e-01	9.965462e-01	9.965231e-01	9.964945e-01	9.964603e-01	9.964220e-01	9.963747e-01	9.963145e-01	9.962457e-01	9.961664e-01	9.960745e-01	9.959681e-01	9.958437e-01	9.956985e-01	9.955309e-01	9.953427e-01	9.951283e-01	9.948718e-01	9.945437e-01	9.940873e-01	9.934137e-01	9.923688e-01	9.908012e-01	9.888701e-01	9.874405e-01	9.869974e-01	9.870003e-01	9.871374e-01	9.875825e-01	9.884915e-01	9.899241e-01	9.918521e-01	9.941760e-01	9.967507e-01	9.994530e-01	1.002241e+00	1.005094e+00	1.007769e+00	1.009709e+00	1.010795e+00	1.010919e+00	1.010778e+00	1.010611e+00	1.010564e+00	1.010940e+00	1.011686e+00	1.011984e+00	1.011944e+00	1.011637e+00	1.010586e+00	1.008149e+00	1.004390e+00	1.000649e+00	9.982340e-01	9.971067e-01	9.966255e-01	9.963733e-01	9.961747e-01	9.959424e-01	9.955940e-01	9.950191e-01	9.940665e-01	9.925775e-01	9.906487e-01	9.890330e-01	9.883936e-01	9.883308e-01	9.884181e-01	9.887790e-01	9.896028e-01	9.909600e-01	9.928227e-01	9.951162e-01	9.977306e-01	1.000546e+00	1.003488e+00	1.006481e+00	1.009256e+00	1.011288e+00	1.012403e+00	1.012656e+00	1.012570e+00	1.012443e+00	1.012444e+00	1.012910e+00	1.013825e+00	1.014313e+00	1.014300e+00	1.014049e+00	1.013135e+00	1.010879e+00	1.007165e+00	1.003359e+00	1.001064e+00	1.000239e+00	1.000042e+00	1.000007e+00	1.000001e+00	1.000000e+00	9.965005e-01	9.964769e-01	9.964772e-01	9.964619e-01	9.964367e-01	9.964052e-01	9.963668e-01	9.963242e-01	9.962735e-01	9.962082e-01	9.961339e-01	9.960488e-01	9.959491e-01	9.958330e-01	9.956985e-01	9.955430e-01	9.953632e-01	9.951606e-01	9.949202