# vtk DataFile Version 3.0
vtk output
ASCII
DATASET STRUCTURED_GRID
DIMENSIONS 101 101 1
POINTS 10201 double
0.000000e+00	0.000000e+00	0.0	1.000000e-02	0.000000e+00	0.0	2.000000e-02	0.000000e+00	0.0	3.000000e-02	0.000000e+00	0.0	4.000000e-02	0.000000e+00	0.0	5.000000e-02	0.000000e+00	0.0	6.000000e-02	0.000000e+00	0.0	7.000000e-02	0.000000e+00	0.0	8.000000e-02	0.000000e+00	0.0	9.000000e-02	0.000000e+00	0.0	1.000000e-01	0.000000e+00	0.0	1.100000e-01	0.000000e+00	0.0	1.200000e-01	0.000000e+00	0.0	1.300000e-01	0.000000e+00	0.0	1.400000e-01	0.000000e+00	0.0	1.500000e-01	0.000000e+00	0.0	1.600000e-01	0.000000e+00	0.0	1.700000e-01	0.000000e+00	0.0	1.800000e-01	0.000000e+00	0.0	1.900000e-01	0.000000e+00	0.0	2.000000e-01	0.000000e+00	0.0	2.100000e-01	0.000000e+00	0.0	2.200000e-01	0.000000e+00	0.0	2.300000e-01	0.000000e+00	0.0	2.400000e-01	0.000000e+00	0.0	2.500000e-01	0.000000e+00	0.0	2.600000e-01	0.000000e+00	0.0	2.700000e-01	0.000000e+00	0.0	2.800000e-01	0.000000e+00	0.0	2.900000e-01	0.000000e+00	0.0	3.000000e-01	0.000000e+00	0.0	3.100000e-01	0.000000e+00	0.0	3.200000e-01	0.000000e+00	0.0	3.300000e-01	0.000000e+00	0.0	3.400000e-01	0.000000e+00	0.0	3.500000e-01	0.000000e+00	0.0	3.600000e-01	0.000000e+00	0.0	3.700000e-01	0.000000e+00	0.0	3.800000e-01	0.000000e+00	0.0	3.900000e-01	0.000000e+00	0.0	4.000000e-01	0.000000e+00	0.0	4.100000e-01	0.000000e+00	0.0	4.200000e-01	0.000000e+00	0.0	4.300000e-01	0.000000e+00	0.0	4.400000e-01	0.000000e+00	0.0	4.500000e-01	0.000000e+00	0.0	4.600000e-01	0.000000e+00	0.0	4.700000e-01	0.000000e+00	0.0	4.800000e-01	0.000000e+00	0.0	4.900000e-01	0.000000e+00	0.0	5.000000e-01	0.000000e+00	0.0	5.100000e-01	0.000000e+00	0.0	5.200000e-01	0.000000e+00	0.0	5.300000e-01	0.000000e+00	0.0	5.400000e-01	0.000000e+00	0.0	5.500000e-01	0.000000e+00	0.0	5.600000e-01	0.000000e+00	0.0	5.700000e-01	0.000000e+00	0.0	5.800000e-01	0.000000e+00	0.0	5.900000e-01	0.000000e+00	0.0	6.000000e-01	0.000000e+00	0.0	6.100000e-01	0.000000e+00	0.0	6.200000e-01	0.000000e+00	0.0	6.300000e-01	0.000000e+00	0.0	6.400000e-01	0.000000e+00	0.0	6.500000e-01	0.000000e+00	0.0	6.600000e-01	0.000000e+00	0.0	6.700000e-01	0.000000e+00	0.0	6.800000e-01	0.000000e+00	0.0	6.900000e-01	0.000000e+00	0.0	7.000000e-01	0.000000e+00	0.0	7.100000e-01	0.000000e+00	0.0	7.200000e-01	0.000000e+00	0.0	7.300000e-01	0.000000e+00	0.0	7.400000e-01	0.000000e+00	0.0	7.500000e-01	0.000000e+00	0.0	7.600000e-01	0.000000e+00	0.0	7.700000e-01	0.000000e+00	0.0	7.800000e-01	0.000000e+00	0.0	7.900000e-01	0.000000e+00	0.0	8.000000e-01	0.000000e+00	0.0	8.100000e-01	0.000000e+00	0.0	8.200000e-01	0.000000e+00	0.0	8.300000e-01	0.000000e+00	0.0	8.400000e-01	0.000000e+00	0.0	8.500000e-01	0.000000e+00	0.0	8.600000e-01	0.000000e+00	0.0	8.700000e-01	0.000000e+00	0.0	8.800000e-01	0.000000e+00	0.0	8.900000e-01	0.000000e+00	0.0	9.000000e-01	0.000000e+00	0.0	9.100000e-01	0.000000e+00	0.0	9.200000e-01	0.000000e+00	0.0	9.300000e-01	0.000000e+00	0.0	9.400000e-01	0.000000e+00	0.0	9.500000e-01	0.000000e+00	0.0	9.600000e-01	0.000000e+00	0.0	9.700000e-01	0.000000e+00	0.0	9.800000e-01	0.000000e+00	0.0	9.900000e-01	0.000000e+00	0.0	1.000000e+00	0.000000e+00	0.0	0.000000e+00	1.000000e-02	0.0	1.000000e-02	1.000000e-02	0.0	2.000000e-02	1.000000e-02	0.0	3.000000e-02	1.000000e-02	0.0	4.000000e-02	1.000000e-02	0.0	5.000000e-02	1.000000e-02	0.0	6.000000e-02	1.000000e-02	0.0	7.000000e-02	1.000000e-02	0.0	8.000000e-02	1.000000e-02	0.0	9.000000e-02	1.000000e-02	0.0	1.000000e-01	1.000000e-02	0.0	1.100000e-01	1.000000e-02	0.0	1.200000e-01	1.000000e-02	0.0	1.300000e-01	1.000000e-02	0.0	1.400000e-01	1.000000e-02	0.0	1.500000e-01	1.000000e-02	0.0	1.600000e-01	1.000000e-02	0.0	1.700000e-01	1.000000e-02	0.0	1.800000e-01	1.000000e-02	0.0	1.900000e-01	1.000000e-02	0.0	2.000000e-01	1.000000e-02	0.0	2.100000e-01	1.000000e-02	0.0	2.200000e-01	1.000000e-02	0.0	2.300000e-01	1.000000e-02	0.0	2.400000e-01	1.000000e-02	0.0	2.500000e-01	1.000000e-02	0.0	2.600000e-01	1.000000e-02	0.0	2.700000e-01	1.000000e-02	0.0	2.800000e-01	1.000000e-02	0.0	2.900000e-01	1.000000e-02	0.0	3.000000e-01	1.000000e-02	0.0	3.100000e-01	1.000000e-02	0.0	3.200000e-01	1.000000e-02	0.0	3.300000e-01	1.000000e-02	0.0	3.400000e-01	1.000000e-02	0.0	3.500000e-01	1.000000e-02	0.0	3.600000e-01	1.000000e-02	0.0	3.700000e-01	1.000000e-02	0.0	3.800000e-01	1.000000e-02	0.0	3.900000e-01	1.000000e-02	0.0	4.000000e-01	1.000000e-02	0.0	4.100000e-01	1.000000e-02	0.0	4.200000e-01	1.000000e-02	0.0	4.300000e-01	1.000000e-02	0.0	4.400000e-01	1.000000e-02	0.0	4.500000e-01	1.000000e-02	0.0	4.600000e-01	1.000000e-02	0.0	4.700000e-01	1.000000e-02	0.0	4.800000e-01	1.000000e-02	0.0	4.900000e-01	1.000000e-02	0.0	5.000000e-01	1.000000e-02	0.0	5.100000e-01	1.000000e-02	0.0	5.200000e-01	1.000000e-02	0.0	5.300000e-01	1.000000e-02	0.0	5.400000e-01	1.000000e-02	0.0	5.500000e-01	1.000000e-02	0.0	5.600000e-01	1.000000e-02	0.0	5.700000e-01	1.000000e-02	0.0	5.800000e-01	1.000000e-02	0.0	5.900000e-01	1.000000e-02	0.0	6.000000e-01	1.000000e-02	0.0	6.100000e-01	1.000000e-02	0.0	6.200000e-01	1.000000e-02	0.0	6.300000e-01	1.000000e-02	0.0	6.400000e-01	1.000000e-02	0.0	6.500000e-01	1.000000e-02	0.0	6.600000e-01	1.000000e-02	0.0	6.700000e-01	1.000000e-02	0.0	6.800000e-01	1.000000e-02	0.0	6.900000e-01	1.000000e-02	0.0	7.000000e-01	1.000000e-02	0.0	7.100000e-01	1.000000e-02	0.0	7.200000e-01	1.000000e-02	0.0	7.300000e-01	1.000000e-02	0.0	7.400000e-01	1.000000e-02	0.0	7.500000e-01	1.000000e-02	0.0	7.600000e-01	1.000000e-02	0.0	7.700000e-01	1.000000e-02	0.0	7.800000e-01	1.000000e-02	0.0	7.900000e-01	1.000000e-02	0.0	8.000000e-01	1.000000e-02	0.0	8.100000e-01	1.000000e-02	0.0	8.200000e-01	1.000000e-02	0.0	8.300000e-01	1.000000e-02	0.0	8.400000e-01	1.000000e-02	0.0	8.500000e-01	1.000000e-02	0.0	8.600000e-01	1.000000e-02	0.0	8.700000e-01	1.000000e-02	0.0	8.800000e-01	1.000000e-02	0.0	8.900000e-01	1.000000e-02	0.0	9.000000e-01	1.000000e-02	0.0	9.100000e-01	1.000000e-02	0.0	9.200000e-01	1.000000e-02	0.0	9.300000e-01	1.000000e-02	0.0	9.400000e-01	1.000000e-02	0.0	9.500000e-01	1.000000e-02	0.0	9.600000e-01	1.000000e-02	0.0	9.700000e-01	1.000000e-02	0.0	9.800000e-01	1.000000e-02	0.0	9.900000e-01	1.000000e-02	0.0	1.000000e+00	1.000000e-02	0.0	0.000000e+00	2.000000e-02	0.0	1.000000e-02	2.000000e-02	0.0	2.000000e-02	2.000000e-02	0.0	3.000000e-02	2.000000e-02	0.0	4.000000e-02	2.000000e-02	0.0	5.000000e-02	2.000000e-02	0.0	6.000000e-02	2.000000e-02	0.0	7.000000e-02	2.000000e-02	0.0	8.000000e-02	2.000000e-02	0.0	9.000000e-02	2.000000e-02	0.0	1.000000e-01	2.000000e-02	0.0	1.100000e-01	2.000000e-02	0.0	1.200000e-01	2.000000e-02	0.0	1.300000e-01	2.000000e-02	0.0	1.400000e-01	2.000000e-02	0.0	1.500000e-01	2.000000e-02	0.0	1.600000e-01	2.000000e-02	0.0	1.700000e-01	2.000000e-02	0.0	1.800000e-01	2.000000e-02	0.0	1.900000e-01	2.000000e-02	0.0	2.000000e-01	2.000000e-02	0.0	2.100000e-01	2.000000e-02	0.0	2.200000e-01	2.000000e-02	0.0	2.300000e-01	2.000000e-02	0.0	2.400000e-01	2.000000e-02	0.0	2.500000e-01	2.000000e-02	0.0	2.600000e-01	2.000000e-02	0.0	2.700000e-01	2.000000e-02	0.0	2.800000e-01	2.000000e-02	0.0	2.900000e-01	2.000000e-02	0.0	3.000000e-01	2.000000e-02	0.0	3.100000e-01	2.000000e-02	0.0	3.200000e-01	2.000000e-02	0.0	3.300000e-01	2.000000e-02	0.0	3.400000e-01	2.000000e-02	0.0	3.500000e-01	2.000000e-02	0.0	3.600000e-01	2.000000e-02	0.0	3.700000e-01	2.000000e-02	0.0	3.800000e-01	2.000000e-02	0.0	3.900000e-01	2.000000e-02	0.0	4.000000e-01	2.000000e-02	0.0	4.100000e-01	2.000000e-02	0.0	4.200000e-01	2.000000e-02	0.0	4.300000e-01	2.000000e-02	0.0	4.400000e-01	2.000000e-02	0.0	4.500000e-01	2.000000e-02	0.0	4.600000e-01	2.000000e-02	0.0	4.700000e-01	2.000000e-02	0.0	4.800000e-01	2.000000e-02	0.0	4.900000e-01	2.000000e-02	0.0	5.000000e-01	2.000000e-02	0.0	5.100000e-01	2.000000e-02	0.0	5.200000e-01	2.000000e-02	0.0	5.300000e-01	2.000000e-02	0.0	5.400000e-01	2.000000e-02	0.0	5.500000e-01	2.000000e-02	0.0	5.600000e-01	2.000000e-02	0.0	5.700000e-01	2.000000e-02	0.0	5.800000e-01	2.000000e-02	0.0	5.900000e-01	2.000000e-02	0.0	6.000000e-01	2.000000e-02	0.0	6.100000e-01	2.000000e-02	0.0	6.200000e-01	2.000000e-02	0.0	6.300000e-01	2.000000e-02	0.0	6.400000e-01	2.000000e-02	0.0	6.500000e-01	2.000000e-02	0.0	6.600000e-01	2.000000e-02	0.0	6.700000e-01	2.000000e-02	0.0	6.800000e-01	2.000000e-02	0.0	6.900000e-01	2.000000e-02	0.0	7.000000e-01	2.000000e-02	0.0	7.100000e-01	2.000000e-02	0.0	7.200000e-01	2.000000e-02	0.0	7.300000e-01	2.000000e-02	0.0	7.400000e-01	2.000000e-02	0.0	7.500000e-01	2.000000e-02	0.0	7.600000e-01	2.000000e-02	0.0	7.700000e-01	2.000000e-02	0.0	7.800000e-01	2.000000e-02	0.0	7.900000e-01	2.000000e-02	0.0	8.000000e-01	2.000000e-02	0.0	8.100000e-01	2.000000e-02	0.0	8.200000e-01	2.000000e-02	0.0	8.300000e-01	2.000000e-02	0.0	8.400000e-01	2.000000e-02	0.0	8.500000e-01	2.000000e-02	0.0	8.600000e-01	2.000000e-02	0.0	8.700000e-01	2.000000e-02	0.0	8.800000e-01	2.000000e-02	0.0	8.900000e-01	2.000000e-02	0.0	9.000000e-01	2.000000e-02	0.0	9.100000e-01	2.000000e-02	0.0	9.200000e-01	2.000000e-02	0.0	9.300000e-01	2.000000e-02	0.0	9.400000e-01	2.000000e-02	0.0	9.500000e-01	2.000000e-02	0.0	9.600000e-01	2.000000e-02	0.0	9.700000e-01	2.000000e-02	0.0	9.800000e-01	2.000000e-02	0.0	9.900000e-01	2.000000e-02	0.0	1.000000e+00	2.000000e-02	0.0	0.000000e+00	3.000000e-02	0.0	1.000000e-02	3.000000e-02	0.0	2.000000e-02	3.000000e-02	0.0	3.000000e-02	3.000000e-02	0.0	4.000000e-02	3.000000e-02	0.0	5.000000e-02	3.000000e-02	0.0	6.000000e-02	3.000000e-02	0.0	7.000000e-02	3.000000e-02	0.0	8.000000e-02	3.000000e-02	0.0	9.000000e-02	3.000000e-02	0.0	1.000000e-01	3.000000e-02	0.0	1.100000e-01	3.000000e-02	0.0	1.200000e-01	3.000000e-02	0.0	1.300000e-01	3.000000e-02	0.0	1.400000e-01	3.000000e-02	0.0	1.500000e-01	3.000000e-02	0.0	1.600000e-01	3.000000e-02	0.0	1.700000e-01	3.000000e-02	0.0	1.800000e-01	3.000000e-02	0.0	1.900000e-01	3.000000e-02	0.0	2.000000e-01	3.000000e-02	0.0	2.100000e-01	3.000000e-02	0.0	2.200000e-01	3.000000e-02	0.0	2.300000e-01	3.000000e-02	0.0	2.400000e-01	3.000000e-02	0.0	2.500000e-01	3.000000e-02	0.0	2.600000e-01	3.000000
[...]
POINT_DATA 10201

SCALARS Height double 1
LOOKUP_TABLE default
9.984163e-01	9.984286e-01	9.984403e-01	9.984469e-01	9.984540e-01	9.984493e-01	9.984383e-01	9.984211e-01	9.984041e-01	9.983880e-01	9.983736e-01	9.983618e-01	9.983516e-01	9.983421e-01	9.983321e-01	9.983206e-01	9.983073e-01	9.982931e-01	9.982782e-01	9.982617e-01	9.982418e-01	9.982131e-01	9.981788e-01	9.981416e-01	9.981026e-01	9.980609e-01	9.980169e-01	9.979692e-01	9.979176e-01	9.978613e-01	9.977998e-01	9.977330e-01	9.976609e-01	9.975829e-01	9.974983e-01	9.974060e-01	9.973040e-01	9.971911e-01	9.970661e-01	9.969269e-01	9.967713e-01	9.965963e-01	9.963967e-01	9.961632e-01	9.958777e-01	9.955078e-01	9.949999e-01	9.942778e-01	9.932552e-01	9.918849e-01	9.902419e-01	9.885781e-01	9.872362e-01	9.864157e-01	9.860692e-01	9.860544e-01	9.865769e-01	9.882462e-01	9.913435e-01	9.957300e-01	1.001060e+00	1.006904e+00	1.012784e+00	1.018064e+00	1.022033e+00	1.024328e+00	1.025149e+00	1.024920e+00	1.022600e+00	1.016890e+00	1.009272e+00	1.003115e+00	9.998311e-01	9.985358e-01	9.981110e-01	9.979817e-01	9.979349e-01	9.978997e-01	9.978458e-01	9.977534e-01	9.976145e-01	9.974343e-01	9.972214e-01	9.969837e-01	9.967201e-01	9.964158e-01	9.960789e-01	9.958299e-01	9.961420e-01	9.980709e-01	1.002529e+00	1.008309e+00	1.012432e+00	1.013662e+00	1.013381e+00	1.012316e+00	1.010181e+00	1.007527e+00	1.005073e+00	1.003743e+00	1.001893e+00	9.984321e-01	9.984333e-01	9.984463e-01	9.984499e-01	9.984544e-01	9.984509e-01	9.984391e-01	9.984214e-01	9.984041e-01	9.983875e-01	9.983722e-01	9.983589e-01	9.983474e-01	9.983369e-01	9.983257e-01	9.983127e-01	9.982974e-01	9.982811e-01	9.982636e-01	9.982436e-01	9.982226e-01	9.981951e-01	9.981638e-01	9.981300e-01	9.980917e-01	9.980534e-01	9.980107e-01	9.979641e-01	9.979133e-01	9.978577e-01	9.977966e-01	9.977299e-01	9.976578e-01	9.975797e-01	9.974948e-01	9.974020e-01	9.972997e-01	9.971864e-01	9.970610e-01	9.969203e-01	9.967631e-01	9.965859e-01	9.963839e-01	9.961479e-01	9.958595e-01	9.954863e-01	9.949745e-01	9.942485e-01	9.932235e-01	9.918508e-01	9.902003e-01	9.885115e-01	9.871170e-01	9.862809e-01	9.860232e-01	9.860453e-01	9.865704e-01	9.882018e-01	9.912906e-01	9.956984e-01	1.001065e+00	1.006942e+00	1.012845e+00	1.018192e+00	1.022336e+00	1.024651e+00	1.025174e+00	1.024899e+00	1.022755e+00	1.017288e+00	1.009465e+00	1.002897e+00	9.995337e-01	9.983674e-01	9.980438e-01	9.979558e-01	9.979209e-01	9.978888e-01	9.978366e-01	9.977455e-01	9.976070e-01	9.974253e-01	9.972089e-01	9.969670e-01	9.966989e-01	9.963799e-01	9.959995e-01	9.956421e-01	9.958214e-01	9.978418e-01	1.002696e+00	1.008632e+00	1.012475e+00	1.013514e+00	1.013365e+00	1.012639e+00	1.010452e+00	1.007606e+00	1.005048e+00	1.003767e+00	1.002011e+00	9.984400e-01	9.984384e-01	9.984534e-01	9.984547e-01	9.984594e-01	9.984569e-01	9.984452e-01	9.984264e-01	9.984095e-01	9.983929e-01	9.983768e-01	9.983624e-01	9.983496e-01	9.983379e-01	9.983251e-01	9.983115e-01	9.982970e-01	9.982811e-01	9.982633e-01	9.982454e-01	9.982243e-01	9.981980e-01	9.981616e-01	9.981264e-01	9.980884e-01	9.980472e-01	9.980055e-01	9.979596e-01	9.979097e-01	9.978549e-01	9.977948e-01	9.977292e-01	9.976580e-01	9.975807e-01	9.974966e-01	9.974049e-01	9.973037e-01	9.971915e-01	9.970662e-01	9.969257e-01	9.967674e-01	9.965889e-01	9.963852e-01	9.961468e-01	9.958544e-01	9.954739e-01	9.949514e-01	9.942133e-01	9.931846e-01	9.918299e-01	9.902168e-01	9.885499e-01	9.871552e-01	9.863778e-01	9.861894e-01	9.862384e-01	9.867915e-01	9.884135e-01	9.914470e-01	9.958201e-01	1.001116e+00	1.006900e+00	1.012716e+00	1.018089e+00	1.022306e+00	1.024425e+00	1.024804e+00	1.024512e+00	1.022510e+00	1.017349e+00	1.009739e+00	1.003032e+00	9.995145e-01	9.983297e-01	9.980248e-01	9.979458e-01	9.979129e-01	9.978814e-01	9.978305e-01	9.977421e-01	9.976068e-01	9.974270e-01	9.972092e-01	9.969618e-01	9.966876e-01	9.963586e-01	9.959575e-01	9.955598e-01	9.957337e-01	9.979368e-01	1.003009e+00	1.008760e+00	1.012248e+00	1.013195e+00	1.013129e+00	1.012617e+00	1.010616e+00	1.007733e+00	1.005137e+00	1.003855e+00	1.002106e+00	9.984360e-01	9.984318e-01	9.984466e-01	9.984478e-01	9.984532e-01	9.984511e-01	9.984395e-01	9.984217e-01	9.984056e-01	9.983908e-01	9.983756e-01	9.983612e-01	9.983481e-01	9.983361e-01	9.983245e-01	9.983105e-01	9.982960e-01	9.982802e-01	9.982637e-01	9.982453e-01	9.982238e-01	9.981963e-01	9.981601e-01	9.981239e-01	9.980846e-01	9.980434e-01	9.980007e-01	9.979549e-01	9.979045e-01	9.978494e-01	9.977891e-01	9.977235e-01	9.976520e-01	9.975744e-01	9.974900e-01	9.973980e-01	9.972965e-01	9.971834e-01	9.970569e-01	9.969146e-01	9.967532e-01	9.965712e-01	9.963631e-01	9.961187e-01	9.958178e-01	9.954236e-01	9.948814e-01	9.941191e-01	9.930703e-01	9.917153e-01	9.901138e-01	9.884521e-01	9.871067e-01	9.864648e-01	9.863491e-01	9.864173e-01	9.870247e-01	9.887028e-01	9.917536e-01	9.960871e-01	1.001322e+00	1.007015e+00	1.012789e+00	1.018223e+00	1.022345e+00	1.024155e+00	1.024440e+00	1.024127e+00	1.022170e+00	1.017228e+00	1.009827e+00	1.003156e+00	9.995763e-01	9.983426e-01	9.980200e-01	9.979343e-01	9.978978e-01	9.978642e-01	9.978125e-01	9.977251e-01	9.975917e-01	9.974128e-01	9.971930e-01	9.969399e-01	9.966572e-01	9.963154e-01	9.958961e-01	9.954781e-01	9.956579e-01	9.979348e-01	1.003002e+00	1.008560e+00	1.011887e+00	1.012874e+00	1.012902e+00	1.012560e+00	1.010899e+00	1.008151e+00	1.005548e+00	1.004263e+00	1.002550e+00	9.984354e-01	9.984289e-01	9.984443e-01	9.984453e-01	9.984497e-01	9.984457e-01	9.984329e-01	9.984164e-01	9.984011e-01	9.983869e-01	9.983715e-01	9.983564e-01	9.983427e-01	9.983304e-01	9.983182e-01	9.983050e-01	9.982905e-01	9.982754e-01	9.982588e-01	9.982403e-01	9.982189e-01	9.981903e-01	9.981540e-01	9.981171e-01	9.980771e-01	9.980358e-01	9.979929e-01	9.979458e-01	9.978950e-01	9.978396e-01	9.977793e-01	9.977138e-01	9.976425e-01	9.975650e-01	9.974806e-01	9.973883e-01	9.972862e-01	9.971724e-01	9.970445e-01	9.968998e-01	9.967358e-01	9.965499e-01	9.963366e-01	9.960843e-01	9.957704e-01	9.953574e-01	9.947879e-01	9.939947e-01	9.929213e-01	9.915559e-01	9.899516e-01	9.883168e-01	9.871150e-01	9.866370e-01	9.865586e-01	9.866649e-01	9.873429e-01	9.890943e-01	9.921762e-01	9.964690e-01	1.001610e+00	1.007201e+00	1.012975e+00	1.018397e+00	1.022246e+00	1.023777e+00	1.023972e+00	1.023646e+00	1.021720e+00	1.016958e+00	1.009829e+00	1.003334e+00	9.997229e-01	9.984055e-01	9.980310e-01	9.979256e-01	9.978811e-01	9.978434e-01	9.977900e-01	9.977034e-01	9.975719e-01	9.973939e-01	9.971720e-01	9.969132e-01	9.966200e-01	9.962621e-01	9.958241e-01	9.954044e-01	9.956340e-01	9.979410e-01	1.002831e+00	1.008139e+00	1.011429e+00	1.012543e+00	1.012654e+00	1.012429e+00	1.011149e+00	1.008725e+00	1.006173e+00	1.004855e+00	1.003186e+00	9.984326e-01	9.984256e-01	9.984411e-01	9.984419e-01	9.984443e-01	9.984382e-01	9.984252e-01	9.984099e-01	9.983954e-01	9.983810e-01	9.983660e-01	9.983512e-01	9.983374e-01	9.983246e-01	9.983122e-01	9.982989e-01	9.982843e-01	9.982697e-01	9.982520e-01	9.982339e-01	9.982131e-01	9.981825e-01	9.981466e-01	9.981095e-01	9.980692e-01	9.980286e-01	9.979847e-01	9.979371e-01	9.978855e-01	9.978296e-01	9.977690e-01	9.977033e-01	9.976320e-01	9.975545e-01	9.974698e-01	9.973767e-01	9.972733e-01	9.971579e-01	9.970274e-01	9.968798e-01	9.967124e-01	9.965221e-01	9.963022e-01	9.960392e-01	9.957077e-01	9.952688e-01	9.946667e-01	9.938389e-01	9.927355e-01	9.913393e-01	9.897213e-01	9.881699e-01	9.871771e-01	9.868451e-01	9.868008e-01	9.869667e-01	9.877433e-01	9.895943e-01	9.927133e-01	9.969471e-01	1.001968e+00	1.007494e+00	1.013273e+00	1.018559e+00	1.022041e+00	1.023300e+00	1.023441e+00	1.023077e+00	1.021146e+00	1.016529e+00	1.009757e+00	1.003544e+00	9.999349e-01	9.985032e-01	9.980548e-01	9.979179e-01	9.978615e-01	9.978180e-01	9.977619e-01	9.976754e-01	9.975455e-01	9.973681e-01	9.971434e-01	9.968791e-01	9.965733e-01	9.961947e-01	9.957361e-01	9.953305e-01	9.956441e-01	9.979305e-01	1.002511e+00	1.007547e+00	1.010895e+00	1.012186e+00	1.012387e+00	1.012269e+00	1.011377e+00	1.009397e+00	1.007013e+00	1.005639e+00	1.003995e+00	9.984255e-01	9.984213e-01	9.984358e-01	9.984361e-01	9.984363e-01	9.984291e-01	9.984169e-01	9.984032e-01	9.983895e-01	9.983757e-01	9.983609e-01	9.983459e-01	9.983318e-01	9.983186e-01	9.983056e-01	9.982924e-01	9.982773e-01	9.982623e-01	9.982438e-01	9.982260e-01	9.982039e-01	9.981713e-01	9.981367e-01	9.980996e-01	9.980590e-01	9.980188e-01	9.979742e-01	9.979259e-01	9.978733e-01	9.978167e-01	9.977556e-01	9.976897e-01	9.976183e-01	9.975406e-01	9.974555e-01	9.973613e-01	9.972561e-01	9.971381e-01	9.970049e-01	9.968539e-01	9.966829e-01	9.964877e-01	9.962598e-01	9.959831e-01	9.956300e-01	9.951571e-01	9.945111e-01	9.936372e-01	9.924915e-01	9.910578e-01	9.894465e-01	9.880525e-01	9.873004e-01	9.870939e-01	9.870871e-01	9.873309e-01	9.882360e-01	9.902044e-01	9.933563e-01	9.975135e-01	1.002417e+00	1.007902e+00	1.013631e+00	1.018667e+00	1.021743e+00	1.022742e+00	1.022838e+00	1.022415e+00	1.020451e+00	1.015978e+00	1.009624e+00	1.003780e+00	1.000207e+00	9.986429e-01	9.980937e-01	9.979122e-01	9.978388e-01	9.977887e-01	9.977293e-01	9.976417e-01	9.975128e-01	9.973355e-01	9.971074e-01	9.968367e-01	9.965136e-01	9.961126e-01	9.956349e-01	9.952599e-01	9.956700e-01	9.978789e-01	1.002085e+00	1.006857e+00	1.010296e+00	1.011782e+00	1.012078e+00	1.012085e+00	1.011605e+00	1.010138e+00	1.008035e+00	1.006641e+00	1.005003e+00	9.984146e-01	9.984159e-01	9.984268e-01	9.984266e-01	9.984249e-01	9.984177e-01	9.984069e-01	9.983947e-01	9.983817e-01	9.983686e-01	9.983547e-01	9.983405e-01	9.983269e-01	9.983142e-01	9.983017e-01	9.982879e-01	9.982720e-01	9.982553e-01	9.982367e-01	9.982161e-01	9.981929e-01	9.981607e-01	9.981256e-01	9.980881e-01	9.980482e-01	9.980069e-01	9.979616e-01	9.979124e-01	9.978592e-01	9.978016e-01	9.977397e-01	9.976732e-01	9.976014e-01	9.975230e-01	9.974375e-01	9.973416e-01	9.972342e-01	9.971131e-01	9.969763e-01	9.968215e-01	9.966460e-01	9.964445e-01	9.962064e-01	9.959125e-01	9.955316e-01	9.950204e-01	9.943268e-01	9.933987e-01	9.921895e-01	9.907063e-01	9.891549e-01	9.879862e-01	9.874750e-01	9.873807e-01	9.874185e-01	9.877652e-01	9.888297e-01	9.909252e-01	9.940968e-01	9.981700e-01	1.002980e+00	1.008406e+00	1.014009e+00	1.018698e+00	1.021351e+00	1.022111e+00	1.022159e+00	1.021662e+00	1.019644e+00	1.015333e+00	1.009449e+00	1.004034e+00	1.000526e+00	9.988203e-01	9.981486e-01	9.979091e-01	9.978129e-01	9.977535e-01	9.976911e-01	9.976029e-01	9.974740e-01	9.972957e-01	9.970633e-01	9.967828e-01	9.964394e-01	9.960102e-01	9.955172e-01	9.951900e-01	9.956888e-01	9.977736e-01	1.001598e+00	1.006103e+00	1.009632e+00	1.011323e+00	1.011714e+00	1.011890e+00	1.011838e+00	1.010932e+00	1.009184e+00	1.007839e+00	1.006221e+00	9.984047e-01	9.984097e-01	9.984165e-01	9.984177e-01	9.984134e-01	9.984053e-01	9.983957e-01	9.983845e-01	9.983718e-01	9.983589e-01	9.983457e-01	9.983327e-01	9.983199e-01	9.983079e-01	9.982959e-01	9.982817e-01	9.982658e-01	9.982473e-01	9.982275e-01	9.982071e-01	9.981816e-01	9.981498e-01	9.981147e-01	9.980759e-01	9.980373e-01	9.979941e-01	9.979479e-01	9.978978e-01	9.978436e-01	9.977850e-01	9.977221e-01	9.976546e-01	9.975822e-01	9.975023e-01	9.974151e-01	9.973176e-01	9.972076e-01	9.970830e-01	9.969422e-01	9.967832e-01	9.966023e-01	9.963929e-01	9.961421e-01	9.958266e-01	9.954128e-01	9.948554e-01	9.941039e-01	9.931059e-01	9.918203e-01	9.903049e-01	9.888758e-01	9.879930e-01	9.877112e-01	9.876910e-01	9.877915e-01	9.882835e-01	9.895261e-01	9.917499e-01	9.949285e-01	9.989193e-01	1.003644e+00	1.008981e+00	1.014373e+00	1.018644e+00	1.020851e+00	1.021405e+00	1.021403e+00	1.020824e+00	1.018740e+00	1.014622e+00	1.009249e+00	1.004296e+00	1.000881e+00	9.990326e-01	9.982188e-01	9.979076e-01	9.977837e-01	9.977131e-01	9.976461e-01	9.975577e-01	9.974295e-01	9.972487e-01	9.970100e-01	9.967161e-01	9.963463e-01	9.958856e-01	9.953806e-01	9.951108e-01	9.956752e-01	9.976129e-01	1.001087e+00	1.005352e+00	1.008937e+00	1.010793e+00	1.011322e+00	1.011690e+00	1.012075e+00	1.011751e+00	1.010424e+00	1.009202e+00	1.007640e+00	9.983954e-01	9.984014e-01	9.984051e-01	9.984076e-01	9.984020e-01	9.983931e-01	9.983843e-01	9.983742e-01	9.983618e-01	9.983491e-01	9.983363e-01	9.983234e-01	9.983116e-01	9.982996e-01	9.982866e-01	9.982720e-01	9.982553e-01	9.982367e-01	9.982155e-01	9.981929e-01	9.981677e-01	9.981363e-01	9.981006e-01	9.980643e-01	9.980230e-01	9.979799e-01	9.979331e-01	9.978825e-01	9.978277e-01	9.977682e-01	9.977042e-01	9.976353e-01	9.975611e-01	9.974791e-01	9.973894e-01	9.972889e-01	9.971754e-01	9.970467e-01	9.969014e-01	9.967373e-01	9.965502e-01	9.963314e-01	9.960648e-01	9.957239e-01	9.952709e-01	9.946593e-01	9.938375e-01	9.927512e-01	9.913817e-01	9.898722e-01	9.886501e-01	9.880983e-01	9.879978e-01	9.880207e-01	9.882239e-01	9.888948e-01	9.903291e-01	9.926705e-01	9.958497e-01	9.997639e-01	1.004392e+00	1.009588e+00	1.014687e+00	1.018478e+00	1.020253e+00	1.020624e+00	1.020573e+00	1.019898e+00	1.017764e+00	1.013878e+00	1.009043e+00	1.004563e+00	1.001261e+00	9.992746e-01	9.983042e-01	9.979081e-01	9.977504e-01	9.976670e-01	9.975950e-01	9.975053e-01	9.973772e-01	9.971936e-01	9.969450e-01	9.966322e-01	9.962317e-01	9.957355e-01	9.952175e-01	9.950055e-01	9.956142e-01	9.974141e-01	1.000609e+00	1.004676e+00	1.008232e+00	1.010192e+00	1.010916e+00	1.011506e+00	1.012308e+00	1.012571e+00	1.011721e+00	1.010700e+00	1.009245e+00	9.983849e-01	9.983910e-01	9.983923e-01	9.983949e-01	9.983885e-01	9.983804e-01	9.983723e-01	9.983632e-01	9.983514e-01	9.983391e-01	9.983268e-01	9.983147e-01	9.983024e-01	9.982904e-01	9.982765e-01	9.982608e-01	9.982428e-01	9.982229e-01	9.982009e-01	9.981768e-01	9.981505e-01	9.981194e-01	9.980854e-01	9.980474e-01	9.980066e-01	9.979630e-01	9.979159e-01	9.978652e-01	9.978101e-01	9.977505e-01	9.976853e-01	9.976149e-01	9.975391e-01	9.974537e-01	9.973603e-01	9.972557e-01	9.971377e-01	9.970042e-01	9.968534e-01	9.966831e-01	9.964885e-01	9.962580e-01	9.959719e-01	9.956002e-01	9.951006e-01	9.944237e-01	9.935149e-01	9.923239e-01	9.908730e-01	9.894453e-01	9.885518e-01	9.882958e-01	9.882941e-01	9.883817e-01	9.887380e-01	9.896156e-01	9.912401e-01	9.936822e-01	9.968606e-01	1.000702e+00	1.005208e+00	1.010195e+00	1.014913e+00	1.018195e+00	1.019547e+00	1.019769e+00	1.019670e+00	1.018889e+00	1.016735e+00	1.013131e+00	1.008850e+00	1.004834e+00	1.001656e+00	9.995390e-01	9.984027e-01	9.979107e-01	9.977138e-01	9.976158e-01	9.975382e-01	9.974465e-01	9.973167e-01	9.971274e-01	9.968659e-01	9.965294e-01	9.960914e-01	9.955515e-01	9.950133e-01	9.948520e-01	9.954892e-01	9.972128e-01	1.000243e+00	1.004114e+00	1.007503e+00	1.009548e+00	1.010516e+00	1.011355e+00	1.012546e+00	1.013363e+00	1.013034e+00	1.012294e+00	1.011012e+00	9.983732e-01	9.983792e-01	9.983786e-01	9.983804e-01	9.983734e-01	9.983663e-01	9.983588e-01	9.983514e-01	9.983408e-01	9.983286e-01	9.983170e-01	9.983050e-01	9.982929e-01	9.982796e-01	9.982652e-01	9.982485e-01	9.982298e-01	9.982095e-01	9.981873e-01	9.981622e-01	9.981343e-01	9.981031e-01	9.980683e-01	9.980294e-01	9.979878e-01	9.979434e-01	9.978957e-01	9.978446e-01	9.977894e-01	9.977295e-01	9.976637e-01	9.975921e-01	9.975135e-01	9.974250e-01	9.973275e-01	9.972181e-01	9.970949e-01	9.969558e-01	9.967990e-01	9.966218e-01	9.964171e-01	9.961723e-01	9.958623e-01	9.954519e-01	9.948951e-01	9.941383e-01	9.931210e-01	9.918059e-01	9.903065e-01	9.890963e-01	9.886146e-01	9.885543e-01	9.885962e-01	9.888015e-01	9.893516e-01	9.904553e-01	9.922587e-01	9.947812e-01	9.979564e-01	1.001727e+00	1.006071e+00	1.010765e+00	1.015015e+00	1.017747e+00	1.018735e+00	1.018851e+00	1.018691e+00	1.017808e+00	1.015678e+00	1.012407e+00	1.008679e+00	1.005108e+00	1.002055e+00	9.998159e-01	9.985098e-01	9.979145e-01	9.976751e-01	9.975613e-01	9.974770e-01	9.973819e-01	9.972483e-01	9.970503e-01	9.967711e-01	9.964043e-01	9.959195e-01	9.953228e-01	9.947520e-01	9.946239e-01	9.952902e-01	9.970680e-01	1.000061e+00	1.003640e+00	1.006754e+00	1.008889e+00	1.010144e+00	1.011266e+00	1.012795e+00	1.014103e+00	1.014314e+00	1.013939e+00	1.012903e+00	9.983599e-01	9.983654e-01	9.983630e-01	9.983644e-01	9.983574e-01	9.983510e-01	9.983443e-01	9.983383e-01	9.983294e-01	9.983186e-01	9.983064e-01	9.982943e-01	9.982814e-01	9.982671e-01	9.982519e-01	9.982349e-01	9.982158e-01	9.981943e-01	9.981698e-01	9.981438e-01	9.981149e-01	9.980830e-01	9.980478e-01	9.980097e-01	9.979680e-01	9.979229e-01	9.978742e-01	9.978218e-01	9.977656e-01	9.977041e-01	9.976374e-01	9.975644e-01	9.974823e-01	9.973906e-01	9.972886e-01	9.971743e-01	9.970459e-01	9.969015e-01	9.967387e-01	9.965538e-01	9.963378e-01	9.960736e-01	9.957336e-01	9.952751e-01	9.946471e-01	9.937899e-01	9.926351e-01	9.911812e-01	9.897551e-01	9.889506e-01	9.887779e-01	9.888031e-01	9.889315e-01	9.893048e-01	9.900820e-01	9.914168e-01	9.933821e-01	9.959644e-01	9.991259e-01	1.002819e+00	1.006951e+00	1.011247e+00	1.014942e+00	1.017146e+00	1.017831e+00	1.017865e+00	1.017640e+00	1.016676e+00	1.014625e+00	1.011735e+00	1.008548e+00	1.005383e+00	1.002448e+00	1.000093e+00	9.986180e-01	9.979170e-01	9.976333e-01	9.975029e-01	9.974115e-01	9.973115e-01	9.971715e-01	9.969613e-01	9.966581e-01	9.962513e-01	9.957081e-01	9.950384e-01	9.944123e-01	9.943005e-01	9.950620e-01	9.970800e-01	1.000053e+00	1.003214e+00	1.006042e+00	1.008256e+00	1.009831e+00	1.011256e+00	1.013056e+00	1.014771e+00	1.015511e+00	1.015577e+00	1.014862e+00	9.983471e-01	9.983488e-01	9.983467e-01	9.983482e-01	9.983414e-01	9.983352e-01	9.983288e-01	9.983247e-01	9.983175e-01	9.983075e-01	9.982952e-01	9.982812e-01	9.982671e-01	9.982513e-01	9.982354e-01	9.982191e-01	9.982005e-01	9.981795e-01	9.981553e-01	9.981271e-01	9.980962e-01	9.980641e-01	9.980288e-01	9.979900e-01	9.979475e-01	9.979013e-01	9.978512e-01	9.977969e-01	9.977391e-01	9.976770e-01	9.976072e-01	9.975309e-01	9.974455e-01	9.973498e-01	9.972428e-01	9.971231e-01	9.969894e-01	9.968397e-01	9.966713e-01	9.964780e-01	9.962489e-01	9.959612e-01	9.955809e-01	9.950619e-01	9.943456e-01	9.933561e-01	9.920245e-01	9.904839e-01	9.893447e-01	9.889997e-01	9.889810e-01	9.890613e-01	9.893320e-01	9.899160e-01	9.909412e-01	9.924998e-01	9.946059e-01	9.972290e-01	1.000356e+00	1.003948e+00	1.007815e+00	1.011592e+00	1.014684e+00	1.016394e+00	1.016836e+00	1.016818e+00	1.016522e+00	1.015516e+00	1.013615e+00	1.011142e+00	1.008461e+00	1.005659e+00	1.002825e+00	1.000358e+00	9.987192e-01	9.979142e-01	9.975858e-01	9.974384e-01	9.973391e-01	9.972330e-01	9.970842e-01	9.968573e-01	9.965219e-01	9.960630e-01	9.954468e-01	9.946774e-01	9.939583e-01	9.938645e-01	9.949530e-01	9.972838e-01	1.000142e+00	1.002864e+00	1.005429e+00	1.007710e+00	1.009597e+00	1.011324e+00	1.013341e+00	1.015372e+00	1.016573e+00	1.017136e+00	1.016791e+00	9.983349e-01	9.983314e-01	9.983299e-01	9.983310e-01	9.983250e-01	9.983191e-01	9.983131e-01	9.983102e-01	9.983046e-01	9.982944e-01	9.982816e-01	9.982666e-01	9.982509e-01	9.982340e-01	9.982187e-01	9.982019e-01	9.981835e-01	9.981617e-01	9.981359e-01	9.981064e-01	9.980738e-01	9.980414e-01	9.980064e-01	9.979674e-01	9.979247e-01	9.978778e-01	9.978260e-01	9.977709e-01	9.977113e-01	9.976453e-01	9.975732e-01	9.974934e-01	9.974038e-01	9.973036e-01	9.971910e-01	9.970650e-01	9.969254e-01	9.967701e-01	9.965956e-01	9.963928e-01	9.961451e-01	9.958259e-01	9.953953e-01	9.948001e-01	9.939673e-01	9.927960e-01	9.912729e-01	9.898575e-01	9.892142e-01	9.891282e-01	9.891753e-01	9.893678e-01	9.898283e-01	9.906570e-01	9.919381e-01	9.937024e-01	9.959246e-01	9.985696e-01	1.001634e+00	1.005073e+00	1.008610e+00	1.011768e+00	1.014176e+00	1.015482e+00	1.015767e+00	1.015706e+00	1.015356e+00	1.014359e+00	1.012683e+00	1.010645e+00	1.008426e+00	1.005935e+00	1.003178e+00	1.000602e+00	9.988086e-01	9.979041e-01	9.975323e-01	9.973674e-01	9.972589e-01	9.971445e-01	9.969830e-01	9.967326e-01	9.963561e-01	9.958321e-01	9.951176e-01	9.941958e-01	9.933544e-01	9.933999e-01	9.950534e-01	9.976745e-01	1.000272e+00	1.002648e+00	1.004983e+00	1.007301e+00	1.009455e+00	1.011463e+00	1.013658e+00	1.015890e+00	1.017479e+00	1.018546e+00	1.018560e+00	9.983223e-01	9.983147e-01	9.983129e-01	9.983127e-01	9.983079e-01	9.983027e-01	9.982974e-01	9.982949e-01	9.982893e-01	9.982791e-01	9.982655e-01	9.982492e-01	9.982323e-01	9.982156e-01	9.981995e-01	9.981824e-01	9.981640e-01	9.981415e-01	9.981153