# vtk DataFile Version 3.0
vtk output
ASCII
DATASET STRUCTURED_GRID
DIMENSIONS 101 101 1
POINTS 10201 double
0.000000e+00	0.000000e+00	0.0	1.000000e-02	0.000000e+00	0.0	2.000000e-02	0.000000e+00	0.0	3.000000e-02	0.000000e+00	0.0	4.000000e-02	0.000000e+00	0.0	5.000000e-02	0.000000e+00	0.0	6.000000e-02	0.000000e+00	0.0	7.000000e-02	0.000000e+00	0.0	8.000000e-02	0.000000e+00	0.0	9.000000e-02	0.000000e+00	0.0	1.000000e-01	0.000000e+00	0.0	1.100000e-01	0.000000e+00	0.0	1.200000e-01	0.000000e+00	0.0	1.300000e-01	0.000000e+00	0.0	1.400000e-01	0.000000e+00	0.0	1.500000e-01	0.000000e+00	0.0	1.600000e-01	0.000000e+00	0.0	1.700000e-01	0.000000e+00	0.0	1.800000e-01	0.000000e+00	0.0	1.900000e-01	0.000000e+00	0.0	2.000000e-01	0.000000e+00	0.0	2.100000e-01	0.000000e+00	0.0	2.200000e-01	0.000000e+00	0.0	2.300000e-01	0.000000e+00	0.0	2.400000e-01	0.000000e+00	0.0	2.500000e-01	0.000000e+00	0.0	2.600000e-01	0.000000e+00	0.0	2.700000e-01	0.000000e+00	0.0	2.800000e-01	0.000000e+00	0.0	2.900000e-01	0.000000e+00	0.0	3.000000e-01	0.000000e+00	0.0	3.100000e-01	0.000000e+00	0.0	3.200000e-01	0.000000e+00	0.0	3.300000e-01	0.000000e+00	0.0	3.400000e-01	0.000000e+00	0.0	3.500000e-01	0.000000e+00	0.0	3.600000e-01	0.000000e+00	0.0	3.700000e-01	0.000000e+00	0.0	3.800000e-01	0.000000e+00	0.0	3.900000e-01	0.000000e+00	0.0	4.000000e-01	0.000000e+00	0.0	4.100000e-01	0.000000e+00	0.0	4.200000e-01	0.000000e+00	0.0	4.300000e-01	0.000000e+00	0.0	4.400000e-01	0.000000e+00	0.0	4.500000e-01	0.000000e+00	0.0	4.600000e-01	0.000000e+00	0.0	4.700000e-01	0.000000e+00	0.0	4.800000e-01	0.000000e+00	0.0	4.900000e-01	0.000000e+00	0.0	5.000000e-01	0.000000e+00	0.0	5.100000e-01	0.000000e+00	0.0	5.200000e-01	0.000000e+00	0.0	5.300000e-01	0.000000e+00	0.0	5.400000e-01	0.000000e+00	0.0	5.500000e-01	0.000000e+00	0.0	5.600000e-01	0.000000e+00	0.0	5.700000e-01	0.000000e+00	0.0	5.800000e-01	0.000000e+00	0.0	5.900000e-01	0.000000e+00	0.0	6.000000e-01	0.000000e+00	0.0	6.100000e-01	0.000000e+00	0.0	6.200000e-01	0.000000e+00	0.0	6.300000e-01	0.000000e+00	0.0	6.400000e-01	0.000000e+00	0.0	6.500000e-01	0.000000e+00	0.0	6.600000e-01	0.000000e+00	0.0	6.700000e-01	0.000000e+00	0.0	6.800000e-01	0.000000e+00	0.0	6.900000e-01	0.000000e+00	0.0	7.000000e-01	0.000000e+00	0.0	7.100000e-01	0.000000e+00	0.0	7.200000e-01	0.000000e+00	0.0	7.300000e-01	0.000000e+00	0.0	7.400000e-01	0.000000e+00	0.0	7.500000e-01	0.000000e+00	0.0	7.600000e-01	0.000000e+00	0.0	7.700000e-01	0.000000e+00	0.0	7.800000e-01	0.000000e+00	0.0	7.900000e-01	0.000000e+00	0.0	8.000000e-01	0.000000e+00	0.0	8.100000e-01	0.000000e+00	0.0	8.200000e-01	0.000000e+00	0.0	8.300000e-01	0.000000e+00	0.0	8.400000e-01	0.000000e+00	0.0	8.500000e-01	0.000000e+00	0.0	8.600000e-01	0.000000e+00	0.0	8.700000e-01	0.000000e+00	0.0	8.800000e-01	0.000000e+00	0.0	8.900000e-01	0.000000e+00	0.0	9.000000e-01	0.000000e+00	0.0	9.100000e-01	0.000000e+00	0.0	9.200000e-01	0.000000e+00	0.0	9.300000e-01	0.000000e+00	0.0	9.400000e-01	0.000000e+00	0.0	9.500000e-01	0.000000e+00	0.0	9.600000e-01	0.000000e+00	0.0	9.700000e-01	0.000000e+00	0.0	9.800000e-01	0.000000e+00	0.0	9.900000e-01	0.000000e+00	0.0	1.000000e+00	0.000000e+00	0.0	0.000000e+00	1.000000e-02	0.0	1.000000e-02	1.000000e-02	0.0	2.000000e-02	1.000000e-02	0.0	3.000000e-02	1.000000e-02	0.0	4.000000e-02	1.000000e-02	0.0	5.000000e-02	1.000000e-02	0.0	6.000000e-02	1.000000e-02	0.0	7.000000e-02	1.000000e-02	0.0	8.000000e-02	1.000000e-02	0.0	9.000000e-02	1.000000e-02	0.0	1.000000e-01	1.000000e-02	0.0	1.100000e-01	1.000000e-02	0.0	1.200000e-01	1.000000e-02	0.0	1.300000e-01	1.000000e-02	0.0	1.400000e-01	1.000000e-02	0.0	1.500000e-01	1.000000e-02	0.0	1.600000e-01	1.000000e-02	0.0	1.700000e-01	1.000000e-02	0.0	1.800000e-01	1.000000e-02	0.0	1.900000e-01	1.000000e-02	0.0	2.000000e-01	1.000000e-02	0.0	2.100000e-01	1.000000e-02	0.0	2.200000e-01	1.000000e-02	0.0	2.300000e-01	1.000000e-02	0.0	2.400000e-01	1.000000e-02	0.0	2.500000e-01	1.000000e-02	0.0	2.600000e-01	1.000000e-02	0.0	2.700000e-01	1.000000e-02	0.0	2.800000e-01	1.000000e-02	0.0	2.900000e-01	1.000000e-02	0.0	3.000000e-01	1.000000e-02	0.0	3.100000e-01	1.000000e-02	0.0	3.200000e-01	1.000000e-02	0.0	3.300000e-01	1.000000e-02	0.0	3.400000e-01	1.000000e-02	0.0	3.500000e-01	1.000000e-02	0.0	3.600000e-01	1.000000e-02	0.0	3.700000e-01	1.000000e-02	0.0	3.800000e-01	1.000000e-02	0.0	3.900000e-01	1.000000e-02	0.0	4.000000e-01	1.000000e-02	0.0	4.100000e-01	1.000000e-02	0.0	4.200000e-01	1.000000e-02	0.0	4.300000e-01	1.000000e-02	0.0	4.400000e-01	1.000000e-02	0.0	4.500000e-01	1.000000e-02	0.0	4.600000e-01	1.000000e-02	0.0	4.700000e-01	1.000000e-02	0.0	4.800000e-01	1.000000e-02	0.0	4.900000e-01	1.000000e-02	0.0	5.000000e-01	1.000000e-02	0.0	5.100000e-01	1.000000e-02	0.0	5.200000e-01	1.000000e-02	0.0	5.300000e-01	1.000000e-02	0.0	5.400000e-01	1.000000e-02	0.0	5.500000e-01	1.000000e-02	0.0	5.600000e-01	1.000000e-02	0.0	5.700000e-01	1.000000e-02	0.0	5.800000e-01	1.000000e-02	0.0	5.900000e-01	1.000000e-02	0.0	6.000000e-01	1.000000e-02	0.0	6.100000e-01	1.000000e-02	0.0	6.200000e-01	1.000000e-02	0.0	6.300000e-01	1.000000e-02	0.0	6.400000e-01	1.000000e-02	0.0	6.500000e-01	1.000000e-02	0.0	6.600000e-01	1.000000e-02	0.0	6.700000e-01	1.000000e-02	0.0	6.800000e-01	1.000000e-02	0.0	6.900000e-01	1.000000e-02	0.0	7.000000e-01	1.000000e-02	0.0	7.100000e-01	1.000000e-02	0.0	7.200000e-01	1.000000e-02	0.0	7.300000e-01	1.000000e-02	0.0	7.400000e-01	1.000000e-02	0.0	7.500000e-01	1.000000e-02	0.0	7.600000e-01	1.000000e-02	0.0	7.700000e-01	1.000000e-02	0.0	7.800000e-01	1.000000e-02	0.0	7.900000e-01	1.000000e-02	0.0	8.000000e-01	1.000000e-02	0.0	8.100000e-01	1.000000e-02	0.0	8.200000e-01	1.000000e-02	0.0	8.300000e-01	1.000000e-02	0.0	8.400000e-01	1.000000e-02	0.0	8.500000e-01	1.000000e-02	0.0	8.600000e-01	1.000000e-02	0.0	8.700000e-01	1.000000e-02	0.0	8.800000e-01	1.000000e-02	0.0	8.900000e-01	1.000000e-02	0.0	9.000000e-01	1.000000e-02	0.0	9.100000e-01	1.000000e-02	0.0	9.200000e-01	1.000000e-02	0.0	9.300000e-01	1.000000e-02	0.0	9.400000e-01	1.000000e-02	0.0	9.500000e-01	1.000000e-02	0.0	9.600000e-01	1.000000e-02	0.0	9.700000e-01	1.000000e-02	0.0	9.800000e-01	1.000000e-02	0.0	9.900000e-01	1.000000e-02	0.0	1.000000e+00	1.000000e-02	0.0	0.000000e+00	2.000000e-02	0.0	1.000000e-02	2.000000e-02	0.0	2.000000e-02	2.000000e-02	0.0	3.000000e-02	2.000000e-02	0.0	4.000000e-02	2.000000e-02	0.0	5.000000e-02	2.000000e-02	0.0	6.000000e-02	2.000000e-02	0.0	7.000000e-02	2.000000e-02	0.0	8.000000e-02	2.000000e-02	0.0	9.000000e-02	2.000000e-02	0.0	1.000000e-01	2.000000e-02	0.0	1.100000e-01	2.000000e-02	0.0	1.200000e-01	2.000000e-02	0.0	1.300000e-01	2.000000e-02	0.0	1.400000e-01	2.000000e-02	0.0	1.500000e-01	2.000000e-02	0.0	1.600000e-01	2.000000e-02	0.0	1.700000e-01	2.000000e-02	0.0	1.800000e-01	2.000000e-02	0.0	1.900000e-01	2.000000e-02	0.0	2.000000e-01	2.000000e-02	0.0	2.100000e-01	2.000000e-02	0.0	2.200000e-01	2.000000e-02	0.0	2.300000e-01	2.000000e-02	0.0	2.400000e-01	2.000000e-02	0.0	2.500000e-01	2.000000e-02	0.0	2.600000e-01	2.000000e-02	0.0	2.700000e-01	2.000000e-02	0.0	2.800000e-01	2.000000e-02	0.0	2.900000e-01	2.000000e-02	0.0	3.000000e-01	2.000000e-02	0.0	3.100000e-01	2.000000e-02	0.0	3.200000e-01	2.000000e-02	0.0	3.300000e-01	2.000000e-02	0.0	3.400000e-01	2.000000e-02	0.0	3.500000e-01	2.000000e-02	0.0	3.600000e-01	2.000000e-02	0.0	3.700000e-01	2.000000e-02	0.0	3.800000e-01	2.000000e-02	0.0	3.900000e-01	2.000000e-02	0.0	4.000000e-01	2.000000e-02	0.0	4.100000e-01	2.000000e-02	0.0	4.200000e-01	2.000000e-02	0.0	4.300000e-01	2.000000e-02	0.0	4.400000e-01	2.000000e-02	0.0	4.500000e-01	2.000000e-02	0.0	4.600000e-01	2.000000e-02	0.0	4.700000e-01	2.000000e-02	0.0	4.800000e-01	2.000000e-02	0.0	4.900000e-01	2.000000e-02	0.0	5.000000e-01	2.000000e-02	0.0	5.100000e-01	2.000000e-02	0.0	5.200000e-01	2.000000e-02	0.0	5.300000e-01	2.000000e-02	0.0	5.400000e-01	2.000000e-02	0.0	5.500000e-01	2.000000e-02	0.0	5.600000e-01	2.000000e-02	0.0	5.700000e-01	2.000000e-02	0.0	5.800000e-01	2.000000e-02	0.0	5.900000e-01	2.000000e-02	0.0	6.000000e-01	2.000000e-02	0.0	6.100000e-01	2.000000e-02	0.0	6.200000e-01	2.000000e-02	0.0	6.300000e-01	2.000000e-02	0.0	6.400000e-01	2.000000e-02	0.0	6.500000e-01	2.000000e-02	0.0	6.600000e-01	2.000000e-02	0.0	6.700000e-01	2.000000e-02	0.0	6.800000e-01	2.000000e-02	0.0	6.900000e-01	2.000000e-02	0.0	7.000000e-01	2.000000e-02	0.0	7.100000e-01	2.000000e-02	0.0	7.200000e-01	2.000000e-02	0.0	7.300000e-01	2.000000e-02	0.0	7.400000e-01	2.000000e-02	0.0	7.500000e-01	2.000000e-02	0.0	7.600000e-01	2.000000e-02	0.0	7.700000e-01	2.000000e-02	0.0	7.800000e-01	2.000000e-02	0.0	7.900000e-01	2.000000e-02	0.0	8.000000e-01	2.000000e-02	0.0	8.100000e-01	2.000000e-02	0.0	8.200000e-01	2.000000e-02	0.0	8.300000e-01	2.000000e-02	0.0	8.400000e-01	2.000000e-02	0.0	8.500000e-01	2.000000e-02	0.0	8.600000e-01	2.000000e-02	0.0	8.700000e-01	2.000000e-02	0.0	8.800000e-01	2.000000e-02	0.0	8.900000e-01	2.000000e-02	0.0	9.000000e-01	2.000000e-02	0.0	9.100000e-01	2.000000e-02	0.0	9.200000e-01	2.000000e-02	0.0	9.300000e-01	2.000000e-02	0.0	9.400000e-01	2.000000e-02	0.0	9.500000e-01	2.000000e-02	0.0	9.600000e-01	2.000000e-02	0.0	9.700000e-01	2.000000e-02	0.0	9.800000e-01	2.000000e-02	0.0	9.900000e-01	2.000000e-02	0.0	1.000000e+00	2.000000e-02	0.0	0.000000e+00	3.000000e-02	0.0	1.000000e-02	3.000000e-02	0.0	2.000000e-02	3.000000e-02	0.0	3.000000e-02	3.000000e-02	0.0	4.000000e-02	3.000000e-02	0.0	5.000000e-02	3.000000e-02	0.0	6.000000e-02	3.000000e-02	0.0	7.000000e-02	3.000000e-02	0.0	8.000000e-02	3.000000e-02	0.0	9.000000e-02	3.000000e-02	0.0	1.000000e-01	3.000000e-02	0.0	1.100000e-01	3.000000e-02	0.0	1.200000e-01	3.000000e-02	0.0	1.300000e-01	3.000000e-02	0.0	1.400000e-01	3.000000e-02	0.0	1.500000e-01	3.000000e-02	0.0	1.600000e-01	3.000000e-02	0.0	1.700000e-01	3.000000e-02	0.0	1.800000e-01	3.000000e-02	0.0	1.900000e-01	3.000000e-02	0.0	2.000000e-01	3.000000e-02	0.0	2.100000e-01	3.000000e-02	0.0	2.200000e-01	3.000000e-02	0.0	2.300000e-01	3.000000e-02	0.0	2.400000e-01	3.000000e-02	0.0	2.500000e-01	3.000000e-02	0.0	2.600000e-01	3.000000
[...]
POINT_DATA 10201

SCALARS Height double 1
LOOKUP_TABLE default
9.991078e-01	9.991111e-01	9.991089e-01	9.991066e-01	9.991080e-01	9.991112e-01	9.991153e-01	9.991184e-01	9.991211e-01	9.991232e-01	9.991233e-01	9.991200e-01	9.991130e-01	9.991041e-01	9.990958e-01	9.990896e-01	9.990859e-01	9.990837e-01	9.990816e-01	9.990772e-01	9.990736e-01	9.990669e-01	9.990568e-01	9.990478e-01	9.990382e-01	9.990283e-01	9.990201e-01	9.990136e-01	9.990079e-01	9.990012e-01	9.989917e-01	9.989788e-01	9.989628e-01	9.989441e-01	9.989247e-01	9.989056e-01	9.988869e-01	9.988679e-01	9.988494e-01	9.988308e-01	9.988115e-01	9.987914e-01	9.987700e-01	9.987474e-01	9.987232e-01	9.986970e-01	9.986686e-01	9.986381e-01	9.986054e-01	9.985704e-01	9.985329e-01	9.984924e-01	9.984483e-01	9.984002e-01	9.983473e-01	9.982891e-01	9.982262e-01	9.981633e-01	9.981016e-01	9.980524e-01	9.980523e-01	9.981814e-01	9.987422e-01	1.000377e+00	1.003896e+00	1.009057e+00	1.014091e+00	1.017130e+00	1.017971e+00	1.017692e+00	1.016489e+00	1.013998e+00	1.010013e+00	1.004730e+00	9.987656e-01	9.928344e-01	9.875403e-01	9.833728e-01	9.805705e-01	9.791016e-01	9.786948e-01	9.792475e-01	9.808978e-01	9.838858e-01	9.882082e-01	9.935799e-01	9.994823e-01	1.005301e+00	1.010334e+00	1.014026e+00	1.016281e+00	1.017325e+00	1.017521e+00	1.016493e+00	1.013178e+00	1.007900e+00	1.002600e+00	9.990252e-01	9.973456e-01	9.967630e-01	9.965951e-01	9.991462e-01	9.991641e-01	9.991619e-01	9.991584e-01	9.991555e-01	9.991518e-01	9.991473e-01	9.991412e-01	9.991357e-01	9.991317e-01	9.991282e-01	9.991238e-01	9.991169e-01	9.991081e-01	9.990987e-01	9.990917e-01	9.990865e-01	9.990923e-01	9.990973e-01	9.991004e-01	9.990993e-01	9.990894e-01	9.990720e-01	9.990562e-01	9.990403e-01	9.990324e-01	9.990252e-01	9.990200e-01	9.990143e-01	9.990068e-01	9.989963e-01	9.989822e-01	9.989656e-01	9.989479e-01	9.989310e-01	9.989156e-01	9.989010e-01	9.988869e-01	9.988728e-01	9.988578e-01	9.988412e-01	9.988229e-01	9.988026e-01	9.987806e-01	9.987568e-01	9.987308e-01	9.987027e-01	9.986721e-01	9.986391e-01	9.986037e-01	9.985656e-01	9.985244e-01	9.984797e-01	9.984309e-01	9.983770e-01	9.983167e-01	9.982511e-01	9.981851e-01	9.981199e-01	9.980525e-01	9.980046e-01	9.980770e-01	9.985534e-01	1.000186e+00	1.003966e+00	1.009584e+00	1.014672e+00	1.017440e+00	1.018129e+00	1.017881e+00	1.016923e+00	1.014371e+00	1.010167e+00	1.004769e+00	9.987723e-01	9.927996e-01	9.874525e-01	9.832446e-01	9.805146e-01	9.791366e-01	9.787460e-01	9.792782e-01	9.808164e-01	9.837553e-01	9.881289e-01	9.935550e-01	9.994976e-01	1.005355e+00	1.010512e+00	1.014417e+00	1.016682e+00	1.017493e+00	1.017684e+00	1.016834e+00	1.013789e+00	1.008416e+00	1.002649e+00	9.988239e-01	9.971480e-01	9.966544e-01	9.965092e-01	9.991401e-01	9.991435e-01	9.991441e-01	9.991413e-01	9.991401e-01	9.991388e-01	9.991378e-01	9.991351e-01	9.991337e-01	9.991328e-01	9.991299e-01	9.991248e-01	9.991174e-01	9.991084e-01	9.990994e-01	9.990922e-01	9.990869e-01	9.990882e-01	9.990850e-01	9.990805e-01	9.990758e-01	9.990695e-01	9.990631e-01	9.990527e-01	9.990409e-01	9.990319e-01	9.990254e-01	9.990201e-01	9.990149e-01	9.990080e-01	9.989982e-01	9.989848e-01	9.989686e-01	9.989506e-01	9.989313e-01	9.989126e-01	9.988958e-01	9.988800e-01	9.988643e-01	9.988480e-01	9.988305e-01	9.988114e-01	9.987906e-01	9.987679e-01	9.987436e-01	9.987174e-01	9.986893e-01	9.986587e-01	9.986257e-01	9.985901e-01	9.985519e-01	9.985107e-01	9.984664e-01	9.984183e-01	9.983651e-01	9.983050e-01	9.982391e-01	9.981730e-01	9.981072e-01	9.980398e-01	9.979904e-01	9.980422e-01	9.985015e-01	1.000198e+00	1.004133e+00	1.009726e+00	1.014564e+00	1.017141e+00	1.017824e+00	1.017622e+00	1.016790e+00	1.014276e+00	1.009994e+00	1.004639e+00	9.987560e-01	9.928718e-01	9.875677e-01	9.834018e-01	9.807561e-01	9.793776e-01	9.789754e-01	9.795111e-01	9.810372e-01	9.838964e-01	9.882405e-01	9.936228e-01	9.994746e-01	1.005216e+00	1.010348e+00	1.014330e+00	1.016533e+00	1.017222e+00	1.017371e+00	1.016535e+00	1.013686e+00	1.008565e+00	1.002815e+00	9.988330e-01	9.970881e-01	9.966104e-01	9.964754e-01	9.991400e-01	9.991435e-01	9.991472e-01	9.991435e-01	9.991420e-01	9.991403e-01	9.991381e-01	9.991358e-01	9.991329e-01	9.991308e-01	9.991283e-01	9.991249e-01	9.991195e-01	9.991122e-01	9.991039e-01	9.990965e-01	9.990895e-01	9.990916e-01	9.990903e-01	9.990891e-01	9.990861e-01	9.990774e-01	9.990684e-01	9.990540e-01	9.990432e-01	9.990362e-01	9.990305e-01	9.990251e-01	9.990192e-01	9.990113e-01	9.990006e-01	9.989865e-01	9.989696e-01	9.989504e-01	9.989309e-01	9.989121e-01	9.988952e-01	9.988797e-01	9.988647e-01	9.988491e-01	9.988322e-01	9.988134e-01	9.987924e-01	9.987694e-01	9.987447e-01	9.987184e-01	9.986902e-01	9.986599e-01	9.986271e-01	9.985914e-01	9.985529e-01	9.985115e-01	9.984671e-01	9.984191e-01	9.983661e-01	9.983058e-01	9.982389e-01	9.981713e-01	9.981045e-01	9.980357e-01	9.979804e-01	9.980155e-01	9.984524e-01	1.000167e+00	1.004186e+00	1.009780e+00	1.014527e+00	1.017022e+00	1.017675e+00	1.017463e+00	1.016689e+00	1.014332e+00	1.010035e+00	1.004617e+00	9.987562e-01	9.929321e-01	9.876767e-01	9.835768e-01	9.810047e-01	9.796252e-01	9.792203e-01	9.797525e-01	9.812683e-01	9.840435e-01	9.883379e-01	9.936792e-01	9.994751e-01	1.005204e+00	1.010397e+00	1.014372e+00	1.016417e+00	1.017060e+00	1.017218e+00	1.016413e+00	1.013650e+00	1.008622e+00	1.002871e+00	9.988086e-01	9.970411e-01	9.965777e-01	9.964504e-01	9.991397e-01	9.991421e-01	9.991463e-01	9.991434e-01	9.991417e-01	9.991399e-01	9.991378e-01	9.991339e-01	9.991312e-01	9.991286e-01	9.991261e-01	9.991229e-01	9.991182e-01	9.991117e-01	9.991040e-01	9.990966e-01	9.990891e-01	9.990905e-01	9.990887e-01	9.990873e-01	9.990843e-01	9.990755e-01	9.990664e-01	9.990519e-01	9.990418e-01	9.990346e-01	9.990291e-01	9.990239e-01	9.990178e-01	9.990097e-01	9.989987e-01	9.989845e-01	9.989673e-01	9.989482e-01	9.989285e-01	9.989098e-01	9.988928e-01	9.988772e-01	9.988623e-01	9.988470e-01	9.988304e-01	9.988118e-01	9.987908e-01	9.987677e-01	9.987427e-01	9.987162e-01	9.986880e-01	9.986577e-01	9.986249e-01	9.985892e-01	9.985506e-01	9.985091e-01	9.984646e-01	9.984167e-01	9.983637e-01	9.983032e-01	9.982355e-01	9.981670e-01	9.980991e-01	9.980302e-01	9.979747e-01	9.980053e-01	9.984344e-01	1.000149e+00	1.004185e+00	1.009755e+00	1.014405e+00	1.016816e+00	1.017443e+00	1.017226e+00	1.016511e+00	1.014312e+00	1.010092e+00	1.004631e+00	9.987744e-01	9.930104e-01	9.878207e-01	9.838127e-01	9.812750e-01	9.798798e-01	9.794690e-01	9.800053e-01	9.815324e-01	9.842556e-01	9.884620e-01	9.937471e-01	9.994923e-01	1.005228e+00	1.010454e+00	1.014327e+00	1.016222e+00	1.016821e+00	1.016981e+00	1.016200e+00	1.013524e+00	1.008593e+00	1.002878e+00	9.988061e-01	9.970298e-01	9.965602e-01	9.964316e-01	9.991384e-01	9.991415e-01	9.991441e-01	9.991418e-01	9.991399e-01	9.991380e-01	9.991358e-01	9.991319e-01	9.991288e-01	9.991259e-01	9.991231e-01	9.991198e-01	9.991153e-01	9.991095e-01	9.991025e-01	9.990955e-01	9.990886e-01	9.990892e-01	9.990872e-01	9.990853e-01	9.990819e-01	9.990733e-01	9.990636e-01	9.990505e-01	9.990396e-01	9.990326e-01	9.990269e-01	9.990218e-01	9.990158e-01	9.990076e-01	9.989967e-01	9.989827e-01	9.989656e-01	9.989466e-01	9.989270e-01	9.989083e-01	9.988910e-01	9.988749e-01	9.988597e-01	9.988442e-01	9.988277e-01	9.988091e-01	9.987881e-01	9.987649e-01	9.987398e-01	9.987130e-01	9.986844e-01	9.986537e-01	9.986207e-01	9.985849e-01	9.985462e-01	9.985047e-01	9.984601e-01	9.984120e-01	9.983586e-01	9.982976e-01	9.982293e-01	9.981605e-01	9.980924e-01	9.980229e-01	9.979673e-01	9.980010e-01	9.984380e-01	1.000155e+00	1.004151e+00	1.009642e+00	1.014195e+00	1.016551e+00	1.017160e+00	1.016939e+00	1.016272e+00	1.014233e+00	1.010161e+00	1.004705e+00	9.988220e-01	9.930963e-01	9.880007e-01	9.841011e-01	9.815754e-01	9.801496e-01	9.797286e-01	9.802793e-01	9.818348e-01	9.845270e-01	9.886167e-01	9.938181e-01	9.995396e-01	1.005308e+00	1.010516e+00	1.014224e+00	1.015963e+00	1.016534e+00	1.016695e+00	1.015927e+00	1.013304e+00	1.008473e+00	1.002856e+00	9.988324e-01	9.970433e-01	9.965515e-01	9.964160e-01	9.991373e-01	9.991396e-01	9.991414e-01	9.991398e-01	9.991376e-01	9.991356e-01	9.991336e-01	9.991302e-01	9.991268e-01	9.991240e-01	9.991210e-01	9.991176e-01	9.991132e-01	9.991075e-01	9.991009e-01	9.990945e-01	9.990880e-01	9.990872e-01	9.990852e-01	9.990828e-01	9.990787e-01	9.990699e-01	9.990595e-01	9.990474e-01	9.990362e-01	9.990297e-01	9.990239e-01	9.990186e-01	9.990127e-01	9.990048e-01	9.989942e-01	9.989801e-01	9.989632e-01	9.989442e-01	9.989248e-01	9.989061e-01	9.988886e-01	9.988722e-01	9.988567e-01	9.988410e-01	9.988244e-01	9.988060e-01	9.987853e-01	9.987623e-01	9.987373e-01	9.987103e-01	9.986813e-01	9.986502e-01	9.986169e-01	9.985808e-01	9.985420e-01	9.985004e-01	9.984557e-01	9.984071e-01	9.983530e-01	9.982913e-01	9.982224e-01	9.981534e-01	9.980853e-01	9.980145e-01	9.979593e-01	9.980016e-01	9.984594e-01	1.000186e+00	1.004110e+00	1.009458e+00	1.013914e+00	1.016235e+00	1.016840e+00	1.016617e+00	1.015975e+00	1.014096e+00	1.010217e+00	1.004824e+00	9.989093e-01	9.932140e-01	9.882494e-01	9.844724e-01	9.819511e-01	9.804827e-01	9.800449e-01	9.806184e-01	9.822165e-01	9.848844e-01	9.888343e-01	9.939145e-01	9.996252e-01	1.005427e+00	1.010557e+00	1.014066e+00	1.015658e+00	1.016212e+00	1.016373e+00	1.015601e+00	1.013008e+00	1.008284e+00	1.002828e+00	9.988854e-01	9.970767e-01	9.965500e-01	9.964023e-01	9.991317e-01	9.991370e-01	9.991366e-01	9.991359e-01	9.991337e-01	9.991315e-01	9.991296e-01	9.991275e-01	9.991247e-01	9.991224e-01	9.991198e-01	9.991166e-01	9.991123e-01	9.991067e-01	9.991004e-01	9.990942e-01	9.990893e-01	9.990860e-01	9.990853e-01	9.990811e-01	9.990760e-01	9.990671e-01	9.990555e-01	9.990444e-01	9.990344e-01	9.990273e-01	9.990213e-01	9.990158e-01	9.990099e-01	9.990022e-01	9.989911e-01	9.989767e-01	9.989592e-01	9.989404e-01	9.989212e-01	9.989026e-01	9.988851e-01	9.988686e-01	9.988527e-01	9.988368e-01	9.988199e-01	9.988014e-01	9.987809e-01	9.987582e-01	9.987334e-01	9.987064e-01	9.986772e-01	9.986458e-01	9.986120e-01	9.985759e-01	9.985372e-01	9.984957e-01	9.984510e-01	9.984021e-01	9.983476e-01	9.982850e-01	9.982161e-01	9.981469e-01	9.980770e-01	9.980059e-01	9.979538e-01	9.980089e-01	9.984959e-01	1.000234e+00	1.004060e+00	1.009226e+00	1.013569e+00	1.015869e+00	1.016483e+00	1.016259e+00	1.015634e+00	1.013899e+00	1.010238e+00	1.004963e+00	9.990501e-01	9.933892e-01	9.885727e-01	9.849268e-01	9.824102e-01	9.808962e-01	9.804406e-01	9.810389e-01	9.826813e-01	9.853227e-01	9.891245e-01	9.940646e-01	9.997547e-01	1.005555e+00	1.010553e+00	1.013845e+00	1.015314e+00	1.015854e+00	1.016012e+00	1.015223e+00	1.012646e+00	1.008047e+00	1.002794e+00	9.989584e-01	9.971266e-01	9.965556e-01	9.963902e-01	9.991268e-01	9.991357e-01	9.991325e-01	9.991321e-01	9.991301e-01	9.991276e-01	9.991257e-01	9.991242e-01	9.991222e-01	9.991205e-01	9.991186e-01	9.991158e-01	9.991112e-01	9.991055e-01	9.990993e-01	9.990934e-01	9.990889e-01	9.990856e-01	9.990828e-01	9.990799e-01	9.990736e-01	9.990633e-01	9.990530e-01	9.990411e-01	9.990335e-01	9.990259e-01	9.990198e-01	9.990141e-01	9.990079e-01	9.989996e-01	9.989880e-01	9.989729e-01	9.989554e-01	9.989366e-01	9.989173e-01	9.988988e-01	9.988813e-01	9.988648e-01	9.988488e-01	9.988324e-01	9.988152e-01	9.987965e-01	9.987760e-01	9.987533e-01	9.987285e-01	9.987013e-01	9.986718e-01	9.986400e-01	9.986059e-01	9.985695e-01	9.985306e-01	9.984891e-01	9.984442e-01	9.983953e-01	9.983403e-01	9.982772e-01	9.982085e-01	9.981391e-01	9.980670e-01	9.979969e-01	9.979509e-01	9.980233e-01	9.985474e-01	1.000298e+00	1.004002e+00	1.008951e+00	1.013163e+00	1.015448e+00	1.016082e+00	1.015861e+00	1.015251e+00	1.013644e+00	1.010208e+00	1.005089e+00	9.992246e-01	9.936358e-01	9.889734e-01	9.854563e-01	9.829412e-01	9.813895e-01	9.809130e-01	9.815346e-01	9.832158e-01	9.858346e-01	9.894930e-01	9.942860e-01	9.999149e-01	1.005662e+00	1.010494e+00	1.013572e+00	1.014927e+00	1.015462e+00	1.015606e+00	1.014786e+00	1.012220e+00	1.007770e+00	1.002753e+00	9.990432e-01	9.971909e-01	9.965692e-01	9.963811e-01	9.991248e-01	9.991335e-01	9.991289e-01	9.991290e-01	9.991266e-01	9.991238e-01	9.991217e-01	9.991211e-01	9.991200e-01	9.991184e-01	9.991165e-01	9.991139e-01	9.991098e-01	9.991035e-01	9.990969e-01	9.990912e-01	9.990869e-01	9.990841e-01	9.990807e-01	9.990761e-01	9.990697e-01	9.990600e-01	9.990494e-01	9.990417e-01	9.990321e-01	9.990255e-01	9.990192e-01	9.990132e-01	9.990064e-01	9.989971e-01	9.989847e-01	9.989693e-01	9.989514e-01	9.989324e-01	9.989132e-01	9.988947e-01	9.988772e-01	9.988606e-01	9.988443e-01	9.988278e-01	9.988103e-01	9.987914e-01	9.987708e-01	9.987481e-01	9.987231e-01	9.986957e-01	9.986660e-01	9.986338e-01	9.985993e-01	9.985625e-01	9.985233e-01	9.984814e-01	9.984362e-01	9.983866e-01	9.983308e-01	9.982671e-01	9.981985e-01	9.981284e-01	9.980553e-01	9.979861e-01	9.979483e-01	9.980441e-01	9.986116e-01	1.000372e+00	1.003937e+00	1.008640e+00	1.012699e+00	1.014970e+00	1.015633e+00	1.015418e+00	1.014822e+00	1.013337e+00	1.010120e+00	1.005180e+00	9.994245e-01	9.939607e-01	9.894625e-01	9.860584e-01	9.835418e-01	9.819524e-01	9.814535e-01	9.821000e-01	9.838123e-01	9.864213e-01	9.899506e-01	9.945830e-01	1.000095e+00	1.005729e+00	1.010378e+00	1.013241e+00	1.014492e+00	1.015025e+00	1.015149e+00	1.014290e+00	1.011739e+00	1.007457e+00	1.002702e+00	9.991367e-01	9.972664e-01	9.965915e-01	9.963765e-01	9.991214e-01	9.991311e-01	9.991251e-01	9.991257e-01	9.991229e-01	9.991199e-01	9.991179e-01	9.991176e-01	9.991180e-01	9.991163e-01	9.991141e-01	9.991111e-01	9.991065e-01	9.991006e-01	9.990938e-01	9.990880e-01	9.990837e-01	9.990807e-01	9.990770e-01	9.990711e-01	9.990639e-01	9.990555e-01	9.990478e-01	9.990383e-01	9.990309e-01	9.990246e-01	9.990184e-01	9.990120e-01	9.990041e-01	9.989938e-01	9.989809e-01	9.989650e-01	9.989471e-01	9.989284e-01	9.989093e-01	9.988908e-01	9.988731e-01	9.988560e-01	9.988393e-01	9.988224e-01	9.988048e-01	9.987858e-01	9.987650e-01	9.987421e-01	9.987169e-01	9.986893e-01	9.986594e-01	9.986272e-01	9.985925e-01	9.985555e-01	9.985160e-01	9.984736e-01	9.984277e-01	9.983772e-01	9.983203e-01	9.982555e-01	9.981863e-01	9.981157e-01	9.980415e-01	9.979732e-01	9.979450e-01	9.980699e-01	9.986875e-01	1.000454e+00	1.003863e+00	1.008300e+00	1.012188e+00	1.014437e+00	1.015132e+00	1.014931e+00	1.014337e+00	1.012966e+00	1.009961e+00	1.005231e+00	9.996479e-01	9.943697e-01	9.900485e-01	9.867330e-01	9.842125e-01	9.825889e-01	9.820681e-01	9.827352e-01	9.844764e-01	9.870821e-01	9.905049e-01	9.949573e-01	1.000291e+00	1.005751e+00	1.010180e+00	1.012842e+00	1.014004e+00	1.014541e+00	1.014642e+00	1.013742e+00	1.011213e+00	1.007118e+00	1.002643e+00	9.992351e-01	9.973528e-01	9.966222e-01	9.963768e-01	9.991176e-01	9.991278e-01	9.991207e-01	9.991219e-01	9.991190e-01	9.991160e-01	9.991143e-01	9.991142e-01	9.991152e-01	9.991143e-01	9.991114e-01	9.991080e-01	9.991032e-01	9.990971e-01	9.990911e-01	9.990857e-01	9.990815e-01	9.990781e-01	9.990734e-01	9.990676e-01	9.990604e-01	9.990523e-01	9.990445e-01	9.990369e-01	9.990300e-01	9.990238e-01	9.990170e-01	9.990098e-01	9.990009e-01	9.989891e-01	9.989754e-01	9.989595e-01	9.989419e-01	9.989240e-01	9.989053e-01	9.988869e-01	9.988689e-01	9.988512e-01	9.988339e-01	9.988166e-01	9.987986e-01	9.987794e-01	9.987584e-01	9.987352e-01	9.987097e-01	9.986819e-01	9.986519e-01	9.986195e-01	9.985848e-01	9.985477e-01	9.985080e-01	9.984652e-01	9.984187e-01	9.983674e-01	9.983091e-01	9.982429e-01	9.981727e-01	9.981012e-01	9.980262e-01	9.979594e-01	9.979420e-01	9.981001e-01	9.987731e-01	1.000543e+00	1.003785e+00	1.007937e+00	1.011635e+00	1.013854e+00	1.014581e+00	1.014397e+00	1.013793e+00	1.012518e+00	1.009724e+00	1.005240e+00	9.998998e-01	9.948656e-01	9.907260e-01	9.874761e-01	9.849552e-01	9.833106e-01	9.827737e-01	9.834510e-01	9.852093e-01	9.878135e-01	9.911529e-01	9.954103e-01	1.000504e+00	1.005721e+00	1.009900e+00	1.012366e+00	1.013462e+00	1.014009e+00	1.014086e+00	1.013144e+00	1.010649e+00	1.006761e+00	1.002578e+00	9.993363e-01	9.974470e-01	9.966597e-01	9.963814e-01	9.991128e-01	9.991232e-01	9.991154e-01	9.991176e-01	9.991147e-01	9.991120e-01	9.991105e-01	9.991109e-01	9.991115e-01	9.991115e-01	9.991081e-01	9.991041e-01	9.990989e-01	9.990932e-01	9.990878e-01	9.990832e-01	9.990787e-01	9.990746e-01	9.990693e-01	9.990631e-01	9.990558e-01	9.990486e-01	9.990417e-01	9.990350e-01	9.990288e-01	9.990224e-01	9.990156e-01	9.990065e-01	9.989956e-01	9.989830e-01	9.989684e-01	9.989525e-01	9.989357e-01	9.989183e-01	9.989005e-01	9.988825e-01	9.988643e-01	9.988462e-01	9.988283e-01	9.988105e-01	9.987923e-01	9.987729e-01	9.987516e-01	9.987281e-01	9.987023e-01	9.986742e-01	9.986438e-01	9.986112e-01	9.985761e-01	9.985387e-01	9.984986e-01	9.984555e-01	9.984084e-01	9.983561e-01	9.982966e-01	9.982290e-01	9.981578e-01	9.980851e-01	9.980095e-01	9.979453e-01	9.979399e-01	9.981343e-01	9.988659e-01	1.000637e+00	1.003706e+00	1.007561e+00	1.011048e+00	1.013225e+00	1.013981e+00	1.013810e+00	1.013189e+00	1.011980e+00	1.009396e+00	1.005207e+00	1.000189e+00	9.954456e-01	9.914812e-01	9.882819e-01	9.857739e-01	9.841297e-01	9.835883e-01	9.842607e-01	9.860131e-01	9.886070e-01	9.918830e-01	9.959431e-01	1.000739e+00	1.005639e+00	1.009524e+00	1.011806e+00	1.012862e+00	1.013428e+00	1.013482e+00	1.012501e+00	1.010055e+00	1.006393e+00	1.002511e+00	9.994392e-01	9.975462e-01	9.967008e-01	9.963882e-01	9.991077e-01	9.991178e-01	9.991097e-01	9.991131e-01	9.991105e-01	9.991083e-01	9.991069e-01	9.991073e-01	9.991076e-01	9.991071e-01	9.991034e-01	9.990991e-01	9.990941e-01	9.990889e-01	9.990842e-01	9.990804e-01	9.990760e-01	9.990711e-01	9.990648e-01	9.990578e-01	9.990505e-01	9.990448e-01	9.990394e-01	9.990339e-01	9.990276e-01	9.990214e-01	9.990121e-01	9.990014e-01	9.989893e-01	9.989752e-01	9.989604e-01	9.989443e-01	9.989278e-01	9.989114e-01	9.988943e-01	9.988768e-01	9.988587e-01	9.988405e-01	9.988224e-01	9.988043e-01	9.987858e-01	9.987662e-01	9.987449e-01	9.987213e-01	9.986953e-01	9.986668e-01	9.986360e-01	9.986028e-01	9.985671e-01	9.985288e-01	9.984880e-01	9.984440e-01	9.983962e-01	9.983430e-01	9.982822e-01	9.982131e-01	9.981408e-01	9.980674e-01	9.979915e-01	9.979302e-01	9.979382e-01	9.981710e-01	9.989624e-01	1.000734e+00	1.003629e+00	1.007182e+00	1.010439e+00	1.012553e+00	1.013333e+00	1.013170e+00	1.012520e+00	1.011346e+00	1.008964e+00	1.005132e+00	1.000524e+00	9.961011e-01	9.923003e-01	9.891486e-01	9.866713e-01	9.850555e-01	9.845254e-01	9.851745e-01	9.868939e-01	9.894559e-01	9.926786e-01	9.965528e-01	1.001004e+00	1.005493e+00	1.009044e+00	1.011157e+00	1.012201e+00	1.012794e+00	1.012827e+00	1.011815e+00	1.009440e+00	1.006025e+00	1.002446e+00	9.995420e-01	9.976470e-01	9.967419e-01	9.963941e-01	9.991025e-01	9.991123e-01	9.991042e-01	9.991085e-01	9.991064e-01	9.991049e-01	9.991037e-01	9.991036e-01	9.991032e-01	9.991012e-01	9.990978e-01	9.990931e-01	9.990888e-01	9.990846e-01	9.990804e-01	9.990768e-01	9.990730e-01	9.990671e-01	9.990601e-01	9.990526e-01	9.990453e-01	9.990408e-01	9.990368e-01	9.990317e-01	9.990264e-01	9.990174e-01	9.990073e-01	9.989953e-01	9.989826e-01	9.989674e-01	9.989517e-01	9.989359e-01	9.989200e-01	9.989040e-01	9.988874e-01	9.988701e-01	9.988521e-01	9.988340e-01	9.988157e-01	9.987974e-01	9.987788e-01	9.987591e-01	9.987378e-01	9.987144e-01	9.986883e-01	9.986597e-01	9.986284e-01	9.985944e-01	9.985578e-01	9.985185e-01	9.984764e-01	9.984313e-01	9.983824e-01	9.983281e-01	9.982658e-01	9.981953e-01	9.981219e-01	9.980484e-01	9.979724e-01	9.979135e-01	9.979356e-01	9.982083e-01	9.990595e-01	1.000830e+00	1.003556e+00	1.006809e+00	1.009817e+00	1.011843e+00	1.012634e+00	1.012472e+00	1.011780e+00	1.010611e+00	1.008422e+00	1.005020e+00	1.000909e+00	9.968173e-01	9.931700e-01	9.900788e-01	9.876556e-01	9.860967e-01	9.855897e-01	9.862029e-01	9.878574e-01	9.903618e-01	9.935212e-01	9.972249e-01	1.001310e+00	1.005293e+00	1.008451e+00	1.010414e+00	1.011473e+00	1.012102e+00	1.012121e+00	1.011093e+00	1.008818e+00	1.005666e+00	1.002386e+00	9.996422e-01	9.977459e-01	9.967799e-01	9.963962e-01	9.990989e-01	9.991076e-01	9.990991e-01	9.991034e-01	9.991022e-01	9.991016e-01	9.991006e-01	9.990997e-01	9.990981e-01	9.990949e-01	9.990906e-01	9.990868e-01	9.990833e-01	9.990802e-01	9.990767e-01	9.990715e-01	9.990679e-01	9.990624e-01	9.990549