# vtk DataFile Version 3.0
vtk output
ASCII
DATASET STRUCTURED_GRID
DIMENSIONS 101 101 1
POINTS 10201 double
0.000000e+00	0.000000e+00	0.0	1.000000e-02	0.000000e+00	0.0	2.000000e-02	0.000000e+00	0.0	3.000000e-02	0.000000e+00	0.0	4.000000e-02	0.000000e+00	0.0	5.000000e-02	0.000000e+00	0.0	6.000000e-02	0.000000e+00	0.0	7.000000e-02	0.000000e+00	0.0	8.000000e-02	0.000000e+00	0.0	9.000000e-02	0.000000e+00	0.0	1.000000e-01	0.000000e+00	0.0	1.100000e-01	0.000000e+00	0.0	1.200000e-01	0.000000e+00	0.0	1.300000e-01	0.000000e+00	0.0	1.400000e-01	0.000000e+00	0.0	1.500000e-01	0.000000e+00	0.0	1.600000e-01	0.000000e+00	0.0	1.700000e-01	0.000000e+00	0.0	1.800000e-01	0.000000e+00	0.0	1.900000e-01	0.000000e+00	0.0	2.000000e-01	0.000000e+00	0.0	2.100000e-01	0.000000e+00	0.0	2.200000e-01	0.000000e+00	0.0	2.300000e-01	0.000000e+00	0.0	2.400000e-01	0.000000e+00	0.0	2.500000e-01	0.000000e+00	0.0	2.600000e-01	0.000000e+00	0.0	2.700000e-01	0.000000e+00	0.0	2.800000e-01	0.000000e+00	0.0	2.900000e-01	0.000000e+00	0.0	3.000000e-01	0.000000e+00	0.0	3.100000e-01	0.000000e+00	0.0	3.200000e-01	0.000000e+00	0.0	3.300000e-01	0.000000e+00	0.0	3.400000e-01	0.000000e+00	0.0	3.500000e-01	0.000000e+00	0.0	3.600000e-01	0.000000e+00	0.0	3.700000e-01	0.000000e+00	0.0	3.800000e-01	0.000000e+00	0.0	3.900000e-01	0.000000e+00	0.0	4.000000e-01	0.000000e+00	0.0	4.100000e-01	0.000000e+00	0.0	4.200000e-01	0.000000e+00	0.0	4.300000e-01	0.000000e+00	0.0	4.400000e-01	0.000000e+00	0.0	4.500000e-01	0.000000e+00	0.0	4.600000e-01	0.000000e+00	0.0	4.700000e-01	0.000000e+00	0.0	4.800000e-01	0.000000e+00	0.0	4.900000e-01	0.000000e+00	0.0	5.000000e-01	0.000000e+00	0.0	5.100000e-01	0.000000e+00	0.0	5.200000e-01	0.000000e+00	0.0	5.300000e-01	0.000000e+00	0.0	5.400000e-01	0.000000e+00	0.0	5.500000e-01	0.000000e+00	0.0	5.600000e-01	0.000000e+00	0.0	5.700000e-01	0.000000e+00	0.0	5.800000e-01	0.000000e+00	0.0	5.900000e-01	0.000000e+00	0.0	6.000000e-01	0.000000e+00	0.0	6.100000e-01	0.000000e+00	0.0	6.200000e-01	0.000000e+00	0.0	6.300000e-01	0.000000e+00	0.0	6.400000e-01	0.000000e+00	0.0	6.500000e-01	0.000000e+00	0.0	6.600000e-01	0.000000e+00	0.0	6.700000e-01	0.000000e+00	0.0	6.800000e-01	0.000000e+00	0.0	6.900000e-01	0.000000e+00	0.0	7.000000e-01	0.000000e+00	0.0	7.100000e-01	0.000000e+00	0.0	7.200000e-01	0.000000e+00	0.0	7.300000e-01	0.000000e+00	0.0	7.400000e-01	0.000000e+00	0.0	7.500000e-01	0.000000e+00	0.0	7.600000e-01	0.000000e+00	0.0	7.700000e-01	0.000000e+00	0.0	7.800000e-01	0.000000e+00	0.0	7.900000e-01	0.000000e+00	0.0	8.000000e-01	0.000000e+00	0.0	8.100000e-01	0.000000e+00	0.0	8.200000e-01	0.000000e+00	0.0	8.300000e-01	0.000000e+00	0.0	8.400000e-01	0.000000e+00	0.0	8.500000e-01	0.000000e+00	0.0	8.600000e-01	0.000000e+00	0.0	8.700000e-01	0.000000e+00	0.0	8.800000e-01	0.000000e+00	0.0	8.900000e-01	0.000000e+00	0.0	9.000000e-01	0.000000e+00	0.0	9.100000e-01	0.000000e+00	0.0	9.200000e-01	0.000000e+00	0.0	9.300000e-01	0.000000e+00	0.0	9.400000e-01	0.000000e+00	0.0	9.500000e-01	0.000000e+00	0.0	9.600000e-01	0.000000e+00	0.0	9.700000e-01	0.000000e+00	0.0	9.800000e-01	0.000000e+00	0.0	9.900000e-01	0.000000e+00	0.0	1.000000e+00	0.000000e+00	0.0	0.000000e+00	1.000000e-02	0.0	1.000000e-02	1.000000e-02	0.0	2.000000e-02	1.000000e-02	0.0	3.000000e-02	1.000000e-02	0.0	4.000000e-02	1.000000e-02	0.0	5.000000e-02	1.000000e-02	0.0	6.000000e-02	1.000000e-02	0.0	7.000000e-02	1.000000e-02	0.0	8.000000e-02	1.000000e-02	0.0	9.000000e-02	1.000000e-02	0.0	1.000000e-01	1.000000e-02	0.0	1.100000e-01	1.000000e-02	0.0	1.200000e-01	1.000000e-02	0.0	1.300000e-01	1.000000e-02	0.0	1.400000e-01	1.000000e-02	0.0	1.500000e-01	1.000000e-02	0.0	1.600000e-01	1.000000e-02	0.0	1.700000e-01	1.000000e-02	0.0	1.800000e-01	1.000000e-02	0.0	1.900000e-01	1.000000e-02	0.0	2.000000e-01	1.000000e-02	0.0	2.100000e-01	1.000000e-02	0.0	2.200000e-01	1.000000e-02	0.0	2.300000e-01	1.000000e-02	0.0	2.400000e-01	1.000000e-02	0.0	2.500000e-01	1.000000e-02	0.0	2.600000e-01	1.000000e-02	0.0	2.700000e-01	1.000000e-02	0.0	2.800000e-01	1.000000e-02	0.0	2.900000e-01	1.000000e-02	0.0	3.000000e-01	1.000000e-02	0.0	3.100000e-01	1.000000e-02	0.0	3.200000e-01	1.000000e-02	0.0	3.300000e-01	1.000000e-02	0.0	3.400000e-01	1.000000e-02	0.0	3.500000e-01	1.000000e-02	0.0	3.600000e-01	1.000000e-02	0.0	3.700000e-01	1.000000e-02	0.0	3.800000e-01	1.000000e-02	0.0	3.900000e-01	1.000000e-02	0.0	4.000000e-01	1.000000e-02	0.0	4.100000e-01	1.000000e-02	0.0	4.200000e-01	1.000000e-02	0.0	4.300000e-01	1.000000e-02	0.0	4.400000e-01	1.000000e-02	0.0	4.500000e-01	1.000000e-02	0.0	4.600000e-01	1.000000e-02	0.0	4.700000e-01	1.000000e-02	0.0	4.800000e-01	1.000000e-02	0.0	4.900000e-01	1.000000e-02	0.0	5.000000e-01	1.000000e-02	0.0	5.100000e-01	1.000000e-02	0.0	5.200000e-01	1.000000e-02	0.0	5.300000e-01	1.000000e-02	0.0	5.400000e-01	1.000000e-02	0.0	5.500000e-01	1.000000e-02	0.0	5.600000e-01	1.000000e-02	0.0	5.700000e-01	1.000000e-02	0.0	5.800000e-01	1.000000e-02	0.0	5.900000e-01	1.000000e-02	0.0	6.000000e-01	1.000000e-02	0.0	6.100000e-01	1.000000e-02	0.0	6.200000e-01	1.000000e-02	0.0	6.300000e-01	1.000000e-02	0.0	6.400000e-01	1.000000e-02	0.0	6.500000e-01	1.000000e-02	0.0	6.600000e-01	1.000000e-02	0.0	6.700000e-01	1.000000e-02	0.0	6.800000e-01	1.000000e-02	0.0	6.900000e-01	1.000000e-02	0.0	7.000000e-01	1.000000e-02	0.0	7.100000e-01	1.000000e-02	0.0	7.200000e-01	1.000000e-02	0.0	7.300000e-01	1.000000e-02	0.0	7.400000e-01	1.000000e-02	0.0	7.500000e-01	1.000000e-02	0.0	7.600000e-01	1.000000e-02	0.0	7.700000e-01	1.000000e-02	0.0	7.800000e-01	1.000000e-02	0.0	7.900000e-01	1.000000e-02	0.0	8.000000e-01	1.000000e-02	0.0	8.100000e-01	1.000000e-02	0.0	8.200000e-01	1.000000e-02	0.0	8.300000e-01	1.000000e-02	0.0	8.400000e-01	1.000000e-02	0.0	8.500000e-01	1.000000e-02	0.0	8.600000e-01	1.000000e-02	0.0	8.700000e-01	1.000000e-02	0.0	8.800000e-01	1.000000e-02	0.0	8.900000e-01	1.000000e-02	0.0	9.000000e-01	1.000000e-02	0.0	9.100000e-01	1.000000e-02	0.0	9.200000e-01	1.000000e-02	0.0	9.300000e-01	1.000000e-02	0.0	9.400000e-01	1.000000e-02	0.0	9.500000e-01	1.000000e-02	0.0	9.600000e-01	1.000000e-02	0.0	9.700000e-01	1.000000e-02	0.0	9.800000e-01	1.000000e-02	0.0	9.900000e-01	1.000000e-02	0.0	1.000000e+00	1.000000e-02	0.0	0.000000e+00	2.000000e-02	0.0	1.000000e-02	2.000000e-02	0.0	2.000000e-02	2.000000e-02	0.0	3.000000e-02	2.000000e-02	0.0	4.000000e-02	2.000000e-02	0.0	5.000000e-02	2.000000e-02	0.0	6.000000e-02	2.000000e-02	0.0	7.000000e-02	2.000000e-02	0.0	8.000000e-02	2.000000e-02	0.0	9.000000e-02	2.000000e-02	0.0	1.000000e-01	2.000000e-02	0.0	1.100000e-01	2.000000e-02	0.0	1.200000e-01	2.000000e-02	0.0	1.300000e-01	2.000000e-02	0.0	1.400000e-01	2.000000e-02	0.0	1.500000e-01	2.000000e-02	0.0	1.600000e-01	2.000000e-02	0.0	1.700000e-01	2.000000e-02	0.0	1.800000e-01	2.000000e-02	0.0	1.900000e-01	2.000000e-02	0.0	2.000000e-01	2.000000e-02	0.0	2.100000e-01	2.000000e-02	0.0	2.200000e-01	2.000000e-02	0.0	2.300000e-01	2.000000e-02	0.0	2.400000e-01	2.000000e-02	0.0	2.500000e-01	2.000000e-02	0.0	2.600000e-01	2.000000e-02	0.0	2.700000e-01	2.000000e-02	0.0	2.800000e-01	2.000000e-02	0.0	2.900000e-01	2.000000e-02	0.0	3.000000e-01	2.000000e-02	0.0	3.100000e-01	2.000000e-02	0.0	3.200000e-01	2.000000e-02	0.0	3.300000e-01	2.000000e-02	0.0	3.400000e-01	2.000000e-02	0.0	3.500000e-01	2.000000e-02	0.0	3.600000e-01	2.000000e-02	0.0	3.700000e-01	2.000000e-02	0.0	3.800000e-01	2.000000e-02	0.0	3.900000e-01	2.000000e-02	0.0	4.000000e-01	2.000000e-02	0.0	4.100000e-01	2.000000e-02	0.0	4.200000e-01	2.000000e-02	0.0	4.300000e-01	2.000000e-02	0.0	4.400000e-01	2.000000e-02	0.0	4.500000e-01	2.000000e-02	0.0	4.600000e-01	2.000000e-02	0.0	4.700000e-01	2.000000e-02	0.0	4.800000e-01	2.000000e-02	0.0	4.900000e-01	2.000000e-02	0.0	5.000000e-01	2.000000e-02	0.0	5.100000e-01	2.000000e-02	0.0	5.200000e-01	2.000000e-02	0.0	5.300000e-01	2.000000e-02	0.0	5.400000e-01	2.000000e-02	0.0	5.500000e-01	2.000000e-02	0.0	5.600000e-01	2.000000e-02	0.0	5.700000e-01	2.000000e-02	0.0	5.800000e-01	2.000000e-02	0.0	5.900000e-01	2.000000e-02	0.0	6.000000e-01	2.000000e-02	0.0	6.100000e-01	2.000000e-02	0.0	6.200000e-01	2.000000e-02	0.0	6.300000e-01	2.000000e-02	0.0	6.400000e-01	2.000000e-02	0.0	6.500000e-01	2.000000e-02	0.0	6.600000e-01	2.000000e-02	0.0	6.700000e-01	2.000000e-02	0.0	6.800000e-01	2.000000e-02	0.0	6.900000e-01	2.000000e-02	0.0	7.000000e-01	2.000000e-02	0.0	7.100000e-01	2.000000e-02	0.0	7.200000e-01	2.000000e-02	0.0	7.300000e-01	2.000000e-02	0.0	7.400000e-01	2.000000e-02	0.0	7.500000e-01	2.000000e-02	0.0	7.600000e-01	2.000000e-02	0.0	7.700000e-01	2.000000e-02	0.0	7.800000e-01	2.000000e-02	0.0	7.900000e-01	2.000000e-02	0.0	8.000000e-01	2.000000e-02	0.0	8.100000e-01	2.000000e-02	0.0	8.200000e-01	2.000000e-02	0.0	8.300000e-01	2.000000e-02	0.0	8.400000e-01	2.000000e-02	0.0	8.500000e-01	2.000000e-02	0.0	8.600000e-01	2.000000e-02	0.0	8.700000e-01	2.000000e-02	0.0	8.800000e-01	2.000000e-02	0.0	8.900000e-01	2.000000e-02	0.0	9.000000e-01	2.000000e-02	0.0	9.100000e-01	2.000000e-02	0.0	9.200000e-01	2.000000e-02	0.0	9.300000e-01	2.000000e-02	0.0	9.400000e-01	2.000000e-02	0.0	9.500000e-01	2.000000e-02	0.0	9.600000e-01	2.000000e-02	0.0	9.700000e-01	2.000000e-02	0.0	9.800000e-01	2.000000e-02	0.0	9.900000e-01	2.000000e-02	0.0	1.000000e+00	2.000000e-02	0.0	0.000000e+00	3.000000e-02	0.0	1.000000e-02	3.000000e-02	0.0	2.000000e-02	3.000000e-02	0.0	3.000000e-02	3.000000e-02	0.0	4.000000e-02	3.000000e-02	0.0	5.000000e-02	3.000000e-02	0.0	6.000000e-02	3.000000e-02	0.0	7.000000e-02	3.000000e-02	0.0	8.000000e-02	3.000000e-02	0.0	9.000000e-02	3.000000e-02	0.0	1.000000e-01	3.000000e-02	0.0	1.100000e-01	3.000000e-02	0.0	1.200000e-01	3.000000e-02	0.0	1.300000e-01	3.000000e-02	0.0	1.400000e-01	3.000000e-02	0.0	1.500000e-01	3.000000e-02	0.0	1.600000e-01	3.000000e-02	0.0	1.700000e-01	3.000000e-02	0.0	1.800000e-01	3.000000e-02	0.0	1.900000e-01	3.000000e-02	0.0	2.000000e-01	3.000000e-02	0.0	2.100000e-01	3.000000e-02	0.0	2.200000e-01	3.000000e-02	0.0	2.300000e-01	3.000000e-02	0.0	2.400000e-01	3.000000e-02	0.0	2.500000e-01	3.000000e-02	0.0	2.600000e-01	3.000000
[...]
POINT_DATA 10201

SCALARS Height double 1
LOOKUP_TABLE default
9.980424e-01	9.980895e-01	9.980503e-01	9.980436e-01	9.980399e-01	9.980371e-01	9.980303e-01	9.980184e-01	9.980068e-01	9.979933e-01	9.979783e-01	9.979615e-01	9.979421e-01	9.979203e-01	9.978965e-01	9.978703e-01	9.978420e-01	9.978114e-01	9.977768e-01	9.977382e-01	9.976941e-01	9.976383e-01	9.975758e-01	9.975071e-01	9.974346e-01	9.973564e-01	9.972751e-01	9.971866e-01	9.970905e-01	9.969848e-01	9.968672e-01	9.967351e-01	9.965851e-01	9.964141e-01	9.962191e-01	9.959966e-01	9.957373e-01	9.954213e-01	9.950085e-01	9.944352e-01	9.936121e-01	9.924434e-01	9.908923e-01	9.890723e-01	9.872886e-01	9.859099e-01	9.851064e-01	9.848056e-01	9.848800e-01	9.857564e-01	9.880754e-01	9.919601e-01	9.971529e-01	1.003206e+00	1.009637e+00	1.015872e+00	1.021174e+00	1.024842e+00	1.026720e+00	1.027130e+00	1.026120e+00	1.021806e+00	1.014049e+00	1.006114e+00	1.001100e+00	9.988955e-01	9.981320e-01	9.978980e-01	9.978234e-01	9.977846e-01	9.977380e-01	9.976599e-01	9.975370e-01	9.973706e-01	9.971706e-01	9.969446e-01	9.966914e-01	9.963954e-01	9.960198e-01	9.955025e-01	9.947538e-01	9.936697e-01	9.921910e-01	9.903980e-01	9.885706e-01	9.870922e-01	9.861830e-01	9.857988e-01	9.858040e-01	9.864869e-01	9.885364e-01	9.921934e-01	9.972752e-01	1.003384e+00	1.010139e+00	1.017323e+00	1.025120e+00	1.034211e+00	1.044437e+00	1.052431e+00	1.057064e+00	9.980508e-01	9.981096e-01	9.980422e-01	9.980392e-01	9.980361e-01	9.980340e-01	9.980284e-01	9.980179e-01	9.980052e-01	9.979909e-01	9.979744e-01	9.979564e-01	9.979359e-01	9.979130e-01	9.978877e-01	9.978596e-01	9.978286e-01	9.977953e-01	9.977586e-01	9.977160e-01	9.976704e-01	9.976157e-01	9.975558e-01	9.974905e-01	9.974190e-01	9.973447e-01	9.972648e-01	9.971776e-01	9.970824e-01	9.969771e-01	9.968595e-01	9.967270e-01	9.965763e-01	9.964043e-01	9.962082e-01	9.959840e-01	9.957217e-01	9.954015e-01	9.949839e-01	9.944045e-01	9.935752e-01	9.924023e-01	9.908467e-01	9.890167e-01	9.872021e-01	9.857624e-01	9.849671e-01	9.847761e-01	9.848867e-01	9.857504e-01	9.880340e-01	9.919314e-01	9.971535e-01	1.003249e+00	1.009708e+00	1.015971e+00	1.021389e+00	1.025247e+00	1.026934e+00	1.027102e+00	1.026132e+00	1.022102e+00	1.014405e+00	1.006052e+00	1.000758e+00	9.986424e-01	9.980195e-01	9.978550e-01	9.978029e-01	9.977698e-01	9.977252e-01	9.976485e-01	9.975262e-01	9.973588e-01	9.971567e-01	9.969283e-01	9.966727e-01	9.963736e-01	9.959946e-01	9.954729e-01	9.947190e-01	9.936317e-01	9.921495e-01	9.903485e-01	9.884956e-01	9.869576e-01	9.860324e-01	9.857595e-01	9.858120e-01	9.864897e-01	9.885012e-01	9.921609e-01	9.972583e-01	1.003387e+00	1.010113e+00	1.017201e+00	1.025020e+00	1.034568e+00	1.045023e+00	1.052649e+00	1.057205e+00	9.980632e-01	9.981226e-01	9.980508e-01	9.980467e-01	9.980420e-01	9.980388e-01	9.980329e-01	9.980221e-01	9.980103e-01	9.979959e-01	9.979788e-01	9.979597e-01	9.979380e-01	9.979141e-01	9.978882e-01	9.978600e-01	9.978299e-01	9.977986e-01	9.977607e-01	9.977196e-01	9.976747e-01	9.976182e-01	9.975565e-01	9.974901e-01	9.974186e-01	9.973418e-01	9.972624e-01	9.971754e-01	9.970806e-01	9.969756e-01	9.968578e-01	9.967248e-01	9.965741e-01	9.964026e-01	9.962070e-01	9.959817e-01	9.957168e-01	9.953890e-01	9.949607e-01	9.943667e-01	9.935227e-01	9.923497e-01	9.908221e-01	9.890408e-01	9.872495e-01	9.858222e-01	9.851256e-01	9.850072e-01	9.851435e-01	9.860338e-01	9.882819e-01	9.921206e-01	9.972752e-01	1.003269e+00	1.009608e+00	1.015809e+00	1.021308e+00	1.025135e+00	1.026518e+00	1.026626e+00	1.025675e+00	1.021962e+00	1.014651e+00	1.006339e+00	1.000832e+00	9.986244e-01	9.980010e-01	9.978447e-01	9.977948e-01	9.977621e-01	9.977186e-01	9.976445e-01	9.975256e-01	9.973605e-01	9.971588e-01	9.969291e-01	9.966695e-01	9.963629e-01	9.959731e-01	9.954365e-01	9.946658e-01	9.935713e-01	9.921091e-01	9.903535e-01	9.885304e-01	9.869963e-01	9.861569e-01	9.859789e-01	9.860520e-01	9.867619e-01	9.887520e-01	9.923546e-01	9.973907e-01	1.003413e+00	1.010008e+00	1.017018e+00	1.024982e+00	1.034723e+00	1.044842e+00	1.052064e+00	1.056311e+00	9.980599e-01	9.981147e-01	9.980442e-01	9.980380e-01	9.980317e-01	9.980282e-01	9.980235e-01	9.980147e-01	9.980045e-01	9.979907e-01	9.979746e-01	9.979562e-01	9.979355e-01	9.979124e-01	9.978866e-01	9.978585e-01	9.978279e-01	9.977956e-01	9.977588e-01	9.977171e-01	9.976713e-01	9.976141e-01	9.975515e-01	9.974845e-01	9.974121e-01	9.973353e-01	9.972556e-01	9.971684e-01	9.970729e-01	9.969664e-01	9.968464e-01	9.967108e-01	9.965570e-01	9.963826e-01	9.961844e-01	9.959552e-01	9.956824e-01	9.953422e-01	9.948931e-01	9.942723e-01	9.933964e-01	9.922002e-01	9.906766e-01	9.889107e-01	9.871356e-01	9.858157e-01	9.852934e-01	9.852192e-01	9.854019e-01	9.863692e-01	9.886807e-01	9.925041e-01	9.976001e-01	1.003481e+00	1.009713e+00	1.015921e+00	1.021453e+00	1.024991e+00	1.026100e+00	1.026143e+00	1.025179e+00	1.021603e+00	1.014609e+00	1.006516e+00	1.001016e+00	9.987018e-01	9.980158e-01	9.978375e-01	9.977795e-01	9.977430e-01	9.976979e-01	9.976241e-01	9.975068e-01	9.973431e-01	9.971410e-01	9.969084e-01	9.966424e-01	9.963244e-01	9.959156e-01	9.953534e-01	9.945512e-01	9.934284e-01	9.919626e-01	9.902194e-01	9.884061e-01	9.869588e-01	9.863008e-01	9.861836e-01	9.862965e-01	9.870855e-01	9.891490e-01	9.927509e-01	9.977347e-01	1.003654e+00	1.010147e+00	1.017181e+00	1.025291e+00	1.034838e+00	1.044401e+00	1.051205e+00	1.055248e+00	9.980596e-01	9.981102e-01	9.980400e-01	9.980327e-01	9.980247e-01	9.980202e-01	9.980156e-01	9.980075e-01	9.979967e-01	9.979837e-01	9.979677e-01	9.979492e-01	9.979283e-01	9.979051e-01	9.978796e-01	9.978513e-01	9.978205e-01	9.977878e-01	9.977506e-01	9.977087e-01	9.976626e-01	9.976052e-01	9.975424e-01	9.974749e-01	9.974020e-01	9.973257e-01	9.972451e-01	9.971573e-01	9.970605e-01	9.969521e-01	9.968294e-01	9.966903e-01	9.965326e-01	9.963542e-01	9.961517e-01	9.959168e-01	9.956347e-01	9.952780e-01	9.948018e-01	9.941444e-01	9.932305e-01	9.920031e-01	9.904684e-01	9.887056e-01	9.870111e-01	9.859096e-01	9.855452e-01	9.855028e-01	9.857553e-01	9.868255e-01	9.892176e-01	9.930456e-01	9.980379e-01	1.003771e+00	1.009919e+00	1.016148e+00	1.021540e+00	1.024662e+00	1.025528e+00	1.025533e+00	1.024549e+00	1.021067e+00	1.014388e+00	1.006699e+00	1.001288e+00	9.988587e-01	9.980681e-01	9.978411e-01	9.977650e-01	9.977209e-01	9.976725e-01	9.975982e-01	9.974824e-01	9.973205e-01	9.971184e-01	9.968819e-01	9.966073e-01	9.962730e-01	9.958369e-01	9.952391e-01	9.943982e-01	9.932417e-01	9.917550e-01	9.900067e-01	9.882474e-01	9.870017e-01	9.865294e-01	9.864564e-01	9.866281e-01	9.875201e-01	9.896791e-01	9.933091e-01	9.982085e-01	1.003994e+00	1.010414e+00	1.017553e+00	1.025682e+00	1.034754e+00	1.043653e+00	1.050039e+00	1.053903e+00	9.980539e-01	9.981006e-01	9.980340e-01	9.980264e-01	9.980174e-01	9.980122e-01	9.980074e-01	9.979995e-01	9.979889e-01	9.979756e-01	9.979593e-01	9.979406e-01	9.979195e-01	9.978964e-01	9.978708e-01	9.978421e-01	9.978107e-01	9.977772e-01	9.977392e-01	9.976971e-01	9.976508e-01	9.975939e-01	9.975312e-01	9.974637e-01	9.973905e-01	9.973149e-01	9.972335e-01	9.971445e-01	9.970459e-01	9.969351e-01	9.968092e-01	9.966657e-01	9.965032e-01	9.963195e-01	9.961103e-01	9.958673e-01	9.955723e-01	9.951933e-01	9.946839e-01	9.939793e-01	9.930179e-01	9.917536e-01	9.901813e-01	9.884329e-01	9.869104e-01	9.860764e-01	9.858435e-01	9.858488e-01	9.861918e-01	9.874027e-01	9.899012e-01	9.937227e-01	9.985836e-01	1.004173e+00	1.010268e+00	1.016453e+00	1.021531e+00	1.024219e+00	1.024859e+00	1.024818e+00	1.023780e+00	1.020343e+00	1.014036e+00	1.006859e+00	1.001644e+00	9.990926e-01	9.981536e-01	9.978532e-01	9.977492e-01	9.976941e-01	9.976404e-01	9.975648e-01	9.974500e-01	9.972898e-01	9.970875e-01	9.968465e-01	9.965597e-01	9.962031e-01	9.957345e-01	9.950876e-01	9.941948e-01	9.929996e-01	9.914765e-01	9.897191e-01	9.880958e-01	9.871162e-01	9.868063e-01	9.867823e-01	9.870387e-01	9.880730e-01	9.903594e-01	9.940135e-01	9.988063e-01	1.004456e+00	1.010859e+00	1.018097e+00	1.026080e+00	1.034515e+00	1.042656e+00	1.048608e+00	1.052305e+00	9.980432e-01	9.980846e-01	9.980266e-01	9.980190e-01	9.980098e-01	9.980040e-01	9.979985e-01	9.979903e-01	9.979795e-01	9.979666e-01	9.979509e-01	9.979325e-01	9.979112e-01	9.978874e-01	9.978610e-01	9.978311e-01	9.977980e-01	9.977633e-01	9.977249e-01	9.976815e-01	9.976351e-01	9.975784e-01	9.975162e-01	9.974490e-01	9.973759e-01	9.973005e-01	9.972180e-01	9.971270e-01	9.970258e-01	9.969118e-01	9.967822e-01	9.966342e-01	9.964665e-01	9.962765e-01	9.960597e-01	9.958058e-01	9.954936e-01	9.950866e-01	9.945323e-01	9.937702e-01	9.927452e-01	9.914203e-01	9.898122e-01	9.881374e-01	9.868715e-01	9.863064e-01	9.861999e-01	9.862573e-01	9.867279e-01	9.881110e-01	9.907249e-01	9.945222e-01	9.992410e-01	1.004695e+00	1.010740e+00	1.016767e+00	1.021405e+00	1.023631e+00	1.024091e+00	1.023997e+00	1.022873e+00	1.019462e+00	1.013565e+00	1.007002e+00	1.002067e+00	9.993969e-01	9.982751e-01	9.978752e-01	9.977325e-01	9.976626e-01	9.976027e-01	9.975246e-01	9.974107e-01	9.972519e-01	9.970487e-01	9.968009e-01	9.964982e-01	9.961144e-01	9.956009e-01	9.948973e-01	9.939401e-01	9.926791e-01	9.911076e-01	9.893905e-01	9.879911e-01	9.873032e-01	9.871406e-01	9.871675e-01	9.875381e-01	9.887533e-01	9.911857e-01	9.948517e-01	9.995223e-01	1.005048e+00	1.011467e+00	1.018729e+00	1.026434e+00	1.034148e+00	1.041459e+00	1.046925e+00	1.050452e+00	9.980257e-01	9.980622e-01	9.980169e-01	9.980092e-01	9.980000e-01	9.979934e-01	9.979871e-01	9.979788e-01	9.979680e-01	9.979559e-01	9.979412e-01	9.979234e-01	9.979026e-01	9.978790e-01	9.978518e-01	9.978212e-01	9.977864e-01	9.977492e-01	9.977097e-01	9.976651e-01	9.976178e-01	9.975606e-01	9.974981e-01	9.974307e-01	9.973581e-01	9.972817e-01	9.971972e-01	9.971037e-01	9.969991e-01	9.968810e-01	9.967472e-01	9.965948e-01	9.964221e-01	9.962257e-01	9.960004e-01	9.957327e-01	9.953968e-01	9.949522e-01	9.943439e-01	9.935136e-01	9.924106e-01	9.910074e-01	9.893760e-01	9.878568e-01	9.869206e-01	9.866140e-01	9.865944e-01	9.867299e-01	9.873744e-01	9.889525e-01	9.916776e-01	9.954326e-01	1.000016e+00	1.005355e+00	1.011291e+00	1.017037e+00	1.021150e+00	1.022923e+00	1.023227e+00	1.023069e+00	1.021837e+00	1.018466e+00	1.013029e+00	1.007138e+00	1.002531e+00	9.997616e-01	9.984332e-01	9.979071e-01	9.977136e-01	9.976249e-01	9.975572e-01	9.974769e-01	9.973637e-01	9.972060e-01	9.970005e-01	9.967436e-01	9.964210e-01	9.960004e-01	9.954335e-01	9.946616e-01	9.936267e-01	9.922830e-01	9.906651e-01	9.890606e-01	9.879700e-01	9.875627e-01	9.875194e-01	9.876095e-01	9.881461e-01	9.895701e-01	9.921513e-01	9.958139e-01	1.000365e+00	1.005794e+00	1.012200e+00	1.019389e+00	1.026709e+00	1.033633e+00	1.040088e+00	1.045017e+00	1.048357e+00	9.980101e-01	9.980408e-01	9.980063e-01	9.979993e-01	9.979892e-01	9.979817e-01	9.979742e-01	9.979655e-01	9.979544e-01	9.979423e-01	9.979280e-01	9.979105e-01	9.978897e-01	9.978654e-01	9.978376e-01	9.978060e-01	9.977717e-01	9.977328e-01	9.976921e-01	9.976488e-01	9.975991e-01	9.975416e-01	9.974787e-01	9.974098e-01	9.973389e-01	9.972603e-01	9.971723e-01	9.970752e-01	9.969663e-01	9.968433e-01	9.967043e-01	9.965469e-01	9.963691e-01	9.961665e-01	9.959317e-01	9.956462e-01	9.952800e-01	9.947870e-01	9.941110e-01	9.931960e-01	9.919954e-01	9.905088e-01	9.889127e-01	9.876450e-01	9.870813e-01	9.869841e-01	9.870173e-01	9.872867e-01	9.881445e-01	9.899283e-01	9.927463e-01	9.964513e-01	1.000912e+00	1.006127e+00	1.011871e+00	1.017210e+00	1.020761e+00	1.022091e+00	1.022268e+00	1.022039e+00	1.020679e+00	1.017389e+00	1.012466e+00	1.007273e+00	1.003022e+00	1.000176e+00	9.986272e-01	9.979508e-01	9.976934e-01	9.975816e-01	9.975049e-01	9.974210e-01	9.973077e-01	9.971504e-01	9.969411e-01	9.966715e-01	9.963222e-01	9.958572e-01	9.952257e-01	9.943710e-01	9.932374e-01	9.917990e-01	9.901719e-01	9.887763e-01	9.880706e-01	9.879056e-01	9.879228e-01	9.881315e-01	9.888788e-01	9.905305e-01	9.932452e-01	9.968941e-01	1.001338e+00	1.006672e+00	1.013008e+00	1.020023e+00	1.026867e+00	1.032981e+00	1.038583e+00	1.042926e+00	1.046035e+00	9.979946e-01	9.980190e-01	9.979933e-01	9.979876e-01	9.979777e-01	9.979687e-01	9.979606e-01	9.979520e-01	9.979407e-01	9.979282e-01	9.979135e-01	9.978955e-01	9.978738e-01	9.978489e-01	9.978198e-01	9.977870e-01	9.977509e-01	9.977122e-01	9.976703e-01	9.976255e-01	9.975758e-01	9.975182e-01	9.974543e-01	9.973876e-01	9.973145e-01	9.972334e-01	9.971433e-01	9.970424e-01	9.969291e-01	9.968007e-01	9.966561e-01	9.964927e-01	9.963088e-01	9.960988e-01	9.958510e-01	9.955422e-01	9.951362e-01	9.945822e-01	9.938224e-01	9.928028e-01	9.914886e-01	9.899321e-01	9.884577e-01	9.875915e-01	9.873556e-01	9.873658e-01	9.874887e-01	9.879529e-01	9.890562e-01	9.910380e-01	9.939250e-01	9.975824e-01	1.001928e+00	1.006975e+00	1.012425e+00	1.017245e+00	1.020184e+00	1.021140e+00	1.021216e+00	1.020895e+00	1.019423e+00	1.016269e+00	1.011911e+00	1.007412e+00	1.003524e+00	1.000623e+00	9.988513e-01	9.980073e-01	9.976737e-01	9.975342e-01	9.974475e-01	9.973592e-01	9.972438e-01	9.970848e-01	9.968688e-01	9.965816e-01	9.961979e-01	9.956773e-01	9.949674e-01	9.940118e-01	9.927595e-01	9.912254e-01	9.896758e-01	9.886269e-01	9.882838e-01	9.882757e-01	9.883653e-01	9.887564e-01	9.897567e-01	9.916369e-01	9.944571e-01	9.980874e-01	1.002443e+00	1.007648e+00	1.013826e+00	1.020573e+00	1.026868e+00	1.032196e+00	1.036982e+00	1.040699e+00	1.043518e+00	9.979792e-01	9.979970e-01	9.979778e-01	9.979730e-01	9.979632e-01	9.979535e-01	9.979453e-01	9.979371e-01	9.979257e-01	9.979127e-01	9.978972e-01	9.978784e-01	9.978560e-01	9.978297e-01	9.977994e-01	9.977652e-01	9.977277e-01	9.976878e-01	9.976446e-01	9.975982e-01	9.975474e-01	9.974893e-01	9.974262e-01	9.973579e-01	9.972829e-01	9.972003e-01	9.971075e-01	9.970033e-01	9.968856e-01	9.967525e-01	9.966016e-01	9.964324e-01	9.962415e-01	9.960220e-01	9.957567e-01	9.954171e-01	9.949590e-01	9.943275e-01	9.934652e-01	9.923182e-01	9.908741e-01	9.893064e-01	9.881288e-01	9.877150e-01	9.876862e-01	9.877591e-01	9.880442e-01	9.887510e-01	9.901167e-01	9.922780e-01	9.952094e-01	9.988199e-01	1.003054e+00	1.007861e+00	1.012890e+00	1.017090e+00	1.019436e+00	1.020072e+00	1.020076e+00	1.019645e+00	1.018096e+00	1.015153e+00	1.011394e+00	1.007560e+00	1.004024e+00	1.001086e+00	9.990941e-01	9.980717e-01	9.976537e-01	9.974826e-01	9.973837e-01	9.972913e-01	9.971737e-01	9.970103e-01	9.967839e-01	9.964724e-01	9.960435e-01	9.954530e-01	9.946466e-01	9.935655e-01	9.921734e-01	9.905756e-01	9.892428e-01	9.886792e-01	9.885962e-01	9.886483e-01	9.888828e-01	9.895128e-01	9.907928e-01	9.928858e-01	9.957799e-01	9.993828e-01	1.003659e+00	1.008693e+00	1.014591e+00	1.020969e+00	1.026707e+00	1.031299e+00	1.035321e+00	1.038387e+00	1.040845e+00	9.979634e-01	9.979752e-01	9.979597e-01	9.979556e-01	9.979457e-01	9.979357e-01	9.979273e-01	9.979194e-01	9.979080e-01	9.978944e-01	9.978781e-01	9.978583e-01	9.978348e-01	9.978073e-01	9.977764e-01	9.977413e-01	9.977029e-01	9.976618e-01	9.976177e-01	9.975698e-01	9.975175e-01	9.974589e-01	9.973950e-01	9.973235e-01	9.972458e-01	9.971598e-01	9.970637e-01	9.969559e-01	9.968341e-01	9.966957e-01	9.965393e-01	9.963637e-01	9.961649e-01	9.959323e-01	9.956449e-01	9.952639e-01	9.947386e-01	9.940113e-01	9.930228e-01	9.917196e-01	9.901432e-01	9.887227e-01	9.880591e-01	9.879502e-01	9.880034e-01	9.882080e-01	9.887153e-01	9.897007e-01	9.913269e-01	9.936415e-01	9.965948e-01	1.000146e+00	1.004252e+00	1.008743e+00	1.013198e+00	1.016743e+00	1.018515e+00	1.018901e+00	1.018843e+00	1.018311e+00	1.016736e+00	1.014088e+00	1.010946e+00	1.007725e+00	1.004512e+00	1.001547e+00	9.993417e-01	9.981362e-01	9.976298e-01	9.974254e-01	9.973134e-01	9.972146e-01	9.970934e-01	9.969240e-01	9.966819e-01	9.963379e-01	9.958520e-01	9.951745e-01	9.942482e-01	9.930089e-01	9.914576e-01	9.899305e-01	9.890576e-01	9.888642e-01	9.889033e-01	9.890664e-01	9.895111e-01	9.904254e-01	9.919905e-01	9.942699e-01	9.972108e-01	1.000769e+00	1.004950e+00	1.009760e+00	1.015240e+00	1.021135e+00	1.026359e+00	1.030303e+00	1.033641e+00	1.036044e+00	1.038077e+00	9.979456e-01	9.979525e-01	9.979385e-01	9.979355e-01	9.979255e-01	9.979151e-01	9.979063e-01	9.978986e-01	9.978872e-01	9.978726e-01	9.978557e-01	9.978349e-01	9.978104e-01	9.977822e-01	9.977504e-01	9.977152e-01	9.976760e-01	9.976335e-01	9.975878e-01	9.975395e-01	9.974863e-01	9.974266e-01	9.973597e-01	9.972864e-01	9.972053e-01	9.971152e-01	9.970142e-01	9.969011e-01	9.967736e-01	9.966293e-01	9.964656e-01	9.962834e-01	9.960752e-01	9.958255e-01	9.955053e-01	9.950695e-01	9.944613e-01	9.936179e-01	9.924656e-01	9.909671e-01	9.893791e-01	9.883926e-01	9.881764e-01	9.882001e-01	9.883538e-01	9.887574e-01	9.895333e-01	9.908145e-01	9.926815e-01	9.951192e-01	9.980755e-01	1.001539e+00	1.005467e+00	1.009565e+00	1.013302e+00	1.016105e+00	1.017426e+00	1.017633e+00	1.017519e+00	1.016911e+00	1.015388e+00	1.013121e+00	1.010586e+00	1.007913e+00	1.004982e+00	1.001990e+00	9.995835e-01	9.981976e-01	9.976006e-01	9.973608e-01	9.972346e-01	9.971287e-01	9.970015e-01	9.968219e-01	9.965576e-01	9.961698e-01	9.956114e-01	9.948259e-01	9.937416e-01	9.922982e-01	9.906517e-01	9.894619e-01	9.891163e-01	9.891102e-01	9.892295e-01	9.895766e-01	9.902874e-01	9.915114e-01	9.933450e-01	9.957756e-01	9.987404e-01	1.002231e+00	1.006269e+00	1.010784e+00	1.015720e+00	1.021034e+00	1.025801e+00	1.029234e+00	1.031959e+00	1.033735e+00	1.035310e+00	9.979259e-01	9.979294e-01	9.979147e-01	9.979129e-01	9.979026e-01	9.978918e-01	9.978822e-01	9.978748e-01	9.978628e-01	9.978477e-01	9.978295e-01	9.978075e-01	9.977823e-01	9.977533e-01	9.977209e-01	9.976849e-01	9.976446e-01	9.976008e-01	9.975538e-01	9.975031e-01	9.974472e-01	9.973869e-01	9.973192e-01	9.972437e-01	9.971596e-01	9.970655e-01	9.969592e-01	9.968394e-01	9.967050e-01	9.965528e-01	9.963832e-01	9.961916e-01	9.959690e-01	9.956936e-01	9.953290e-01	9.948228e-01	9.941113e-01	9.931136e-01	9.917397e-01	9.900790e-01	9.887849e-01	9.883747e-01	9.883539e-01	9.884612e-01	9.887898e-01	9.894459e-01	9.905254e-01	9.920998e-01	9.941740e-01	9.966982e-01	9.996344e-01	1.002976e+00	1.006637e+00	1.010241e+00	1.013188e+00	1.015204e+00	1.016163e+00	1.016279e+00	1.016113e+00	1.015475e+00	1.014109e+00	1.012290e+00	1.010329e+00	1.008123e+00	1.005426e+00	1.002400e+00	9.998069e-01	9.982520e-01	9.975667e-01	9.972905e-01	9.971483e-01	9.970329e-01	9.968961e-01	9.967003e-01	9.964035e-01	9.959574e-01	9.953056e-01	9.943754e-01	9.930726e-01	9.914174e-01	9.899517e-01	9.893408e-01	9.892738e-01	9.893536e-01	9.896297e-01	9.902222e-01	9.912431e-01	9.927808e-01	9.948493e-01	9.973919e-01	1.000356e+00	1.003746e+00	1.007556e+00	1.011653e+00	1.015976e+00	1.020654e+00	1.025013e+00	1.028110e+00	1.030300e+00	1.031532e+00	1.032656e+00	9.979040e-01	9.979056e-01	9.978881e-01	9.978879e-01	9.978771e-01	9.978659e-01	9.978551e-01	9.978471e-01	9.978346e-01	9.978185e-01	9.977992e-01	9.977766e-01	9.977506e-01	9.977210e-01	9.976884e-01	9.976514e-01	9.976110e-01	9.975661e-01	9.975172e-01	9.974634e-01	9.974040e-01	9.973419e-01	9.972729e-01	9.971958e-01	9.971087e-01	9.970099e-01	9.968975e-01	9.967704e-01	9.966273e-01	9.964682e-01	9.962904e-01	9.960871e-01	9.958436e-01	9.955323e-01	9.951085e-01	9.945123e-01	9.936616e-01	9.924385e-01	9.908121e-01	9.892656e-01	9.885564e-01	9.884732e-01	9.885369e-01	9.887884e-01	9.893532e-01	9.903089e-01	9.917081e-01	9.935535e-01	9.957924e-01	9.983662e-01	1.001254e+00	1.004423e+00	1.007694e+00	1.010646e+00	1.012830e+00	1.014067e+00	1.014707e+00	1.014841e+00	1.014645e+00	1.014056e+00	1.012963e+00	1.011622e+00	1.010176e+00	1.008350e+00	1.005832e+00	1.002760e+00	9.999990e-01	9.982931e-01	9.975262e-01	9.972140e-01	9.970545e-01	9.969270e-01	9.967760e-01	9.965555e-01	9.962133e-01	9.956898e-01	9.949099e-01	9.937660e-01	9.921862e-01	9.905135e-01	9.895753e-01	9.894068e-01	9.894483e-01	9.896501e-01	9.901498e-01	9.910427e-01	9.923971e-01	9.942307e-01	9.964912e-01	9.991063e-01	1.002041e+00	1.005282e+00	1.008747e+00	1.012272e+00	1.015952e+00	1.020021e+00	1.023983e+00	1.026915e+00	1.028692e+00	1.029508e+00	1.030245e+00	9.978796e-01	9.978803e-01	9.978585e-01	9.978610e-01	9.978490e-01	9.978367e-01	9.978243e-01	9.978155e-01	9.978025e-01	9.977854e-01	9.977649e-01	9.977416e-01	9.977154e-01	9.976850e-01	9.976514e-01	9.976147e-01	9.975734e-01	9.975274e-01	9.974759