# vtk DataFile Version 3.0
vtk output
ASCII
DATASET STRUCTURED_GRID
DIMENSIONS 101 101 1
POINTS 10201 double
0.000000e+00	0.000000e+00	0.0	1.000000e-02	0.000000e+00	0.0	2.000000e-02	0.000000e+00	0.0	3.000000e-02	0.000000e+00	0.0	4.000000e-02	0.000000e+00	0.0	5.000000e-02	0.000000e+00	0.0	6.000000e-02	0.000000e+00	0.0	7.000000e-02	0.000000e+00	0.0	8.000000e-02	0.000000e+00	0.0	9.000000e-02	0.000000e+00	0.0	1.000000e-01	0.000000e+00	0.0	1.100000e-01	0.000000e+00	0.0	1.200000e-01	0.000000e+00	0.0	1.300000e-01	0.000000e+00	0.0	1.400000e-01	0.000000e+00	0.0	1.500000e-01	0.000000e+00	0.0	1.600000e-01	0.000000e+00	0.0	1.700000e-01	0.000000e+00	0.0	1.800000e-01	0.000000e+00	0.0	1.900000e-01	0.000000e+00	0.0	2.000000e-01	0.000000e+00	0.0	2.100000e-01	0.000000e+00	0.0	2.200000e-01	0.000000e+00	0.0	2.300000e-01	0.000000e+00	0.0	2.400000e-01	0.000000e+00	0.0	2.500000e-01	0.000000e+00	0.0	2.600000e-01	0.000000e+00	0.0	2.700000e-01	0.000000e+00	0.0	2.800000e-01	0.000000e+00	0.0	2.900000e-01	0.000000e+00	0.0	3.000000e-01	0.000000e+00	0.0	3.100000e-01	0.000000e+00	0.0	3.200000e-01	0.000000e+00	0.0	3.300000e-01	0.000000e+00	0.0	3.400000e-01	0.000000e+00	0.0	3.500000e-01	0.000000e+00	0.0	3.600000e-01	0.000000e+00	0.0	3.700000e-01	0.000000e+00	0.0	3.800000e-01	0.000000e+00	0.0	3.900000e-01	0.000000e+00	0.0	4.000000e-01	0.000000e+00	0.0	4.100000e-01	0.000000e+00	0.0	4.200000e-01	0.000000e+00	0.0	4.300000e-01	0.000000e+00	0.0	4.400000e-01	0.000000e+00	0.0	4.500000e-01	0.000000e+00	0.0	4.600000e-01	0.000000e+00	0.0	4.700000e-01	0.000000e+00	0.0	4.800000e-01	0.000000e+00	0.0	4.900000e-01	0.000000e+00	0.0	5.000000e-01	0.000000e+00	0.0	5.100000e-01	0.000000e+00	0.0	5.200000e-01	0.000000e+00	0.0	5.300000e-01	0.000000e+00	0.0	5.400000e-01	0.000000e+00	0.0	5.500000e-01	0.000000e+00	0.0	5.600000e-01	0.000000e+00	0.0	5.700000e-01	0.000000e+00	0.0	5.800000e-01	0.000000e+00	0.0	5.900000e-01	0.000000e+00	0.0	6.000000e-01	0.000000e+00	0.0	6.100000e-01	0.000000e+00	0.0	6.200000e-01	0.000000e+00	0.0	6.300000e-01	0.000000e+00	0.0	6.400000e-01	0.000000e+00	0.0	6.500000e-01	0.000000e+00	0.0	6.600000e-01	0.000000e+00	0.0	6.700000e-01	0.000000e+00	0.0	6.800000e-01	0.000000e+00	0.0	6.900000e-01	0.000000e+00	0.0	7.000000e-01	0.000000e+00	0.0	7.100000e-01	0.000000e+00	0.0	7.200000e-01	0.000000e+00	0.0	7.300000e-01	0.000000e+00	0.0	7.400000e-01	0.000000e+00	0.0	7.500000e-01	0.000000e+00	0.0	7.600000e-01	0.000000e+00	0.0	7.700000e-01	0.000000e+00	0.0	7.800000e-01	0.000000e+00	0.0	7.900000e-01	0.000000e+00	0.0	8.000000e-01	0.000000e+00	0.0	8.100000e-01	0.000000e+00	0.0	8.200000e-01	0.000000e+00	0.0	8.300000e-01	0.000000e+00	0.0	8.400000e-01	0.000000e+00	0.0	8.500000e-01	0.000000e+00	0.0	8.600000e-01	0.000000e+00	0.0	8.700000e-01	0.000000e+00	0.0	8.800000e-01	0.000000e+00	0.0	8.900000e-01	0.000000e+00	0.0	9.000000e-01	0.000000e+00	0.0	9.100000e-01	0.000000e+00	0.0	9.200000e-01	0.000000e+00	0.0	9.300000e-01	0.000000e+00	0.0	9.400000e-01	0.000000e+00	0.0	9.500000e-01	0.000000e+00	0.0	9.600000e-01	0.000000e+00	0.0	9.700000e-01	0.000000e+00	0.0	9.800000e-01	0.000000e+00	0.0	9.900000e-01	0.000000e+00	0.0	1.000000e+00	0.000000e+00	0.0	0.000000e+00	1.000000e-02	0.0	1.000000e-02	1.000000e-02	0.0	2.000000e-02	1.000000e-02	0.0	3.000000e-02	1.000000e-02	0.0	4.000000e-02	1.000000e-02	0.0	5.000000e-02	1.000000e-02	0.0	6.000000e-02	1.000000e-02	0.0	7.000000e-02	1.000000e-02	0.0	8.000000e-02	1.000000e-02	0.0	9.000000e-02	1.000000e-02	0.0	1.000000e-01	1.000000e-02	0.0	1.100000e-01	1.000000e-02	0.0	1.200000e-01	1.000000e-02	0.0	1.300000e-01	1.000000e-02	0.0	1.400000e-01	1.000000e-02	0.0	1.500000e-01	1.000000e-02	0.0	1.600000e-01	1.000000e-02	0.0	1.700000e-01	1.000000e-02	0.0	1.800000e-01	1.000000e-02	0.0	1.900000e-01	1.000000e-02	0.0	2.000000e-01	1.000000e-02	0.0	2.100000e-01	1.000000e-02	0.0	2.200000e-01	1.000000e-02	0.0	2.300000e-01	1.000000e-02	0.0	2.400000e-01	1.000000e-02	0.0	2.500000e-01	1.000000e-02	0.0	2.600000e-01	1.000000e-02	0.0	2.700000e-01	1.000000e-02	0.0	2.800000e-01	1.000000e-02	0.0	2.900000e-01	1.000000e-02	0.0	3.000000e-01	1.000000e-02	0.0	3.100000e-01	1.000000e-02	0.0	3.200000e-01	1.000000e-02	0.0	3.300000e-01	1.000000e-02	0.0	3.400000e-01	1.000000e-02	0.0	3.500000e-01	1.000000e-02	0.0	3.600000e-01	1.000000e-02	0.0	3.700000e-01	1.000000e-02	0.0	3.800000e-01	1.000000e-02	0.0	3.900000e-01	1.000000e-02	0.0	4.000000e-01	1.000000e-02	0.0	4.100000e-01	1.000000e-02	0.0	4.200000e-01	1.000000e-02	0.0	4.300000e-01	1.000000e-02	0.0	4.400000e-01	1.000000e-02	0.0	4.500000e-01	1.000000e-02	0.0	4.600000e-01	1.000000e-02	0.0	4.700000e-01	1.000000e-02	0.0	4.800000e-01	1.000000e-02	0.0	4.900000e-01	1.000000e-02	0.0	5.000000e-01	1.000000e-02	0.0	5.100000e-01	1.000000e-02	0.0	5.200000e-01	1.000000e-02	0.0	5.300000e-01	1.000000e-02	0.0	5.400000e-01	1.000000e-02	0.0	5.500000e-01	1.000000e-02	0.0	5.600000e-01	1.000000e-02	0.0	5.700000e-01	1.000000e-02	0.0	5.800000e-01	1.000000e-02	0.0	5.900000e-01	1.000000e-02	0.0	6.000000e-01	1.000000e-02	0.0	6.100000e-01	1.000000e-02	0.0	6.200000e-01	1.000000e-02	0.0	6.300000e-01	1.000000e-02	0.0	6.400000e-01	1.000000e-02	0.0	6.500000e-01	1.000000e-02	0.0	6.600000e-01	1.000000e-02	0.0	6.700000e-01	1.000000e-02	0.0	6.800000e-01	1.000000e-02	0.0	6.900000e-01	1.000000e-02	0.0	7.000000e-01	1.000000e-02	0.0	7.100000e-01	1.000000e-02	0.0	7.200000e-01	1.000000e-02	0.0	7.300000e-01	1.000000e-02	0.0	7.400000e-01	1.000000e-02	0.0	7.500000e-01	1.000000e-02	0.0	7.600000e-01	1.000000e-02	0.0	7.700000e-01	1.000000e-02	0.0	7.800000e-01	1.000000e-02	0.0	7.900000e-01	1.000000e-02	0.0	8.000000e-01	1.000000e-02	0.0	8.100000e-01	1.000000e-02	0.0	8.200000e-01	1.000000e-02	0.0	8.300000e-01	1.000000e-02	0.0	8.400000e-01	1.000000e-02	0.0	8.500000e-01	1.000000e-02	0.0	8.600000e-01	1.000000e-02	0.0	8.700000e-01	1.000000e-02	0.0	8.800000e-01	1.000000e-02	0.0	8.900000e-01	1.000000e-02	0.0	9.000000e-01	1.000000e-02	0.0	9.100000e-01	1.000000e-02	0.0	9.200000e-01	1.000000e-02	0.0	9.300000e-01	1.000000e-02	0.0	9.400000e-01	1.000000e-02	0.0	9.500000e-01	1.000000e-02	0.0	9.600000e-01	1.000000e-02	0.0	9.700000e-01	1.000000e-02	0.0	9.800000e-01	1.000000e-02	0.0	9.900000e-01	1.000000e-02	0.0	1.000000e+00	1.000000e-02	0.0	0.000000e+00	2.000000e-02	0.0	1.000000e-02	2.000000e-02	0.0	2.000000e-02	2.000000e-02	0.0	3.000000e-02	2.000000e-02	0.0	4.000000e-02	2.000000e-02	0.0	5.000000e-02	2.000000e-02	0.0	6.000000e-02	2.000000e-02	0.0	7.000000e-02	2.000000e-02	0.0	8.000000e-02	2.000000e-02	0.0	9.000000e-02	2.000000e-02	0.0	1.000000e-01	2.000000e-02	0.0	1.100000e-01	2.000000e-02	0.0	1.200000e-01	2.000000e-02	0.0	1.300000e-01	2.000000e-02	0.0	1.400000e-01	2.000000e-02	0.0	1.500000e-01	2.000000e-02	0.0	1.600000e-01	2.000000e-02	0.0	1.700000e-01	2.000000e-02	0.0	1.800000e-01	2.000000e-02	0.0	1.900000e-01	2.000000e-02	0.0	2.000000e-01	2.000000e-02	0.0	2.100000e-01	2.000000e-02	0.0	2.200000e-01	2.000000e-02	0.0	2.300000e-01	2.000000e-02	0.0	2.400000e-01	2.000000e-02	0.0	2.500000e-01	2.000000e-02	0.0	2.600000e-01	2.000000e-02	0.0	2.700000e-01	2.000000e-02	0.0	2.800000e-01	2.000000e-02	0.0	2.900000e-01	2.000000e-02	0.0	3.000000e-01	2.000000e-02	0.0	3.100000e-01	2.000000e-02	0.0	3.200000e-01	2.000000e-02	0.0	3.300000e-01	2.000000e-02	0.0	3.400000e-01	2.000000e-02	0.0	3.500000e-01	2.000000e-02	0.0	3.600000e-01	2.000000e-02	0.0	3.700000e-01	2.000000e-02	0.0	3.800000e-01	2.000000e-02	0.0	3.900000e-01	2.000000e-02	0.0	4.000000e-01	2.000000e-02	0.0	4.100000e-01	2.000000e-02	0.0	4.200000e-01	2.000000e-02	0.0	4.300000e-01	2.000000e-02	0.0	4.400000e-01	2.000000e-02	0.0	4.500000e-01	2.000000e-02	0.0	4.600000e-01	2.000000e-02	0.0	4.700000e-01	2.000000e-02	0.0	4.800000e-01	2.000000e-02	0.0	4.900000e-01	2.000000e-02	0.0	5.000000e-01	2.000000e-02	0.0	5.100000e-01	2.000000e-02	0.0	5.200000e-01	2.000000e-02	0.0	5.300000e-01	2.000000e-02	0.0	5.400000e-01	2.000000e-02	0.0	5.500000e-01	2.000000e-02	0.0	5.600000e-01	2.000000e-02	0.0	5.700000e-01	2.000000e-02	0.0	5.800000e-01	2.000000e-02	0.0	5.900000e-01	2.000000e-02	0.0	6.000000e-01	2.000000e-02	0.0	6.100000e-01	2.000000e-02	0.0	6.200000e-01	2.000000e-02	0.0	6.300000e-01	2.000000e-02	0.0	6.400000e-01	2.000000e-02	0.0	6.500000e-01	2.000000e-02	0.0	6.600000e-01	2.000000e-02	0.0	6.700000e-01	2.000000e-02	0.0	6.800000e-01	2.000000e-02	0.0	6.900000e-01	2.000000e-02	0.0	7.000000e-01	2.000000e-02	0.0	7.100000e-01	2.000000e-02	0.0	7.200000e-01	2.000000e-02	0.0	7.300000e-01	2.000000e-02	0.0	7.400000e-01	2.000000e-02	0.0	7.500000e-01	2.000000e-02	0.0	7.600000e-01	2.000000e-02	0.0	7.700000e-01	2.000000e-02	0.0	7.800000e-01	2.000000e-02	0.0	7.900000e-01	2.000000e-02	0.0	8.000000e-01	2.000000e-02	0.0	8.100000e-01	2.000000e-02	0.0	8.200000e-01	2.000000e-02	0.0	8.300000e-01	2.000000e-02	0.0	8.400000e-01	2.000000e-02	0.0	8.500000e-01	2.000000e-02	0.0	8.600000e-01	2.000000e-02	0.0	8.700000e-01	2.000000e-02	0.0	8.800000e-01	2.000000e-02	0.0	8.900000e-01	2.000000e-02	0.0	9.000000e-01	2.000000e-02	0.0	9.100000e-01	2.000000e-02	0.0	9.200000e-01	2.000000e-02	0.0	9.300000e-01	2.000000e-02	0.0	9.400000e-01	2.000000e-02	0.0	9.500000e-01	2.000000e-02	0.0	9.600000e-01	2.000000e-02	0.0	9.700000e-01	2.000000e-02	0.0	9.800000e-01	2.000000e-02	0.0	9.900000e-01	2.000000e-02	0.0	1.000000e+00	2.000000e-02	0.0	0.000000e+00	3.000000e-02	0.0	1.000000e-02	3.000000e-02	0.0	2.000000e-02	3.000000e-02	0.0	3.000000e-02	3.000000e-02	0.0	4.000000e-02	3.000000e-02	0.0	5.000000e-02	3.000000e-02	0.0	6.000000e-02	3.000000e-02	0.0	7.000000e-02	3.000000e-02	0.0	8.000000e-02	3.000000e-02	0.0	9.000000e-02	3.000000e-02	0.0	1.000000e-01	3.000000e-02	0.0	1.100000e-01	3.000000e-02	0.0	1.200000e-01	3.000000e-02	0.0	1.300000e-01	3.000000e-02	0.0	1.400000e-01	3.000000e-02	0.0	1.500000e-01	3.000000e-02	0.0	1.600000e-01	3.000000e-02	0.0	1.700000e-01	3.000000e-02	0.0	1.800000e-01	3.000000e-02	0.0	1.900000e-01	3.000000e-02	0.0	2.000000e-01	3.000000e-02	0.0	2.100000e-01	3.000000e-02	0.0	2.200000e-01	3.000000e-02	0.0	2.300000e-01	3.000000e-02	0.0	2.400000e-01	3.000000e-02	0.0	2.500000e-01	3.000000e-02	0.0	2.600000e-01	3.000000
[...]
POINT_DATA 10201

SCALARS Height double 1
LOOKUP_TABLE default
9.986120e-01	9.986210e-01	9.986303e-01	9.986272e-01	9.986273e-01	9.986267e-01	9.986270e-01	9.986268e-01	9.986281e-01	9.986295e-01	9.986259e-01	9.986152e-01	9.985981e-01	9.985783e-01	9.985589e-01	9.985419e-01	9.985281e-01	9.985182e-01	9.985105e-01	9.985024e-01	9.984907e-01	9.984705e-01	9.984459e-01	9.984187e-01	9.983920e-01	9.983649e-01	9.983362e-01	9.983061e-01	9.982740e-01	9.982393e-01	9.982015e-01	9.981599e-01	9.981145e-01	9.980646e-01	9.980099e-01	9.979502e-01	9.978857e-01	9.978154e-01	9.977396e-01	9.976576e-01	9.975678e-01	9.974687e-01	9.973583e-01	9.972354e-01	9.970987e-01	9.969470e-01	9.967779e-01	9.965867e-01	9.963632e-01	9.960881e-01	9.957283e-01	9.952324e-01	9.945289e-01	9.935388e-01	9.922240e-01	9.906639e-01	9.891018e-01	9.878574e-01	9.871080e-01	9.867986e-01	9.867887e-01	9.872618e-01	9.887746e-01	9.916156e-01	9.956785e-01	1.000661e+00	1.006169e+00	1.011758e+00	1.016843e+00	1.020736e+00	1.023036e+00	1.023933e+00	1.023857e+00	1.022097e+00	1.017267e+00	1.010195e+00	1.003914e+00	1.000274e+00	9.987470e-01	9.982365e-01	9.981198e-01	9.982243e-01	9.987100e-01	1.000180e+00	1.003715e+00	1.009818e+00	1.016589e+00	1.020989e+00	1.022333e+00	1.022063e+00	1.020654e+00	1.017600e+00	1.012776e+00	1.006591e+00	9.996580e-01	9.925870e-01	9.860574e-01	9.807979e-01	9.772832e-01	9.756761e-01	9.750415e-01	9.986244e-01	9.986241e-01	9.986343e-01	9.986314e-01	9.986305e-01	9.986286e-01	9.986282e-01	9.986283e-01	9.986314e-01	9.986321e-01	9.986275e-01	9.986155e-01	9.985970e-01	9.985753e-01	9.985541e-01	9.985353e-01	9.985194e-01	9.985074e-01	9.984972e-01	9.984860e-01	9.984739e-01	9.984543e-01	9.984322e-01	9.984091e-01	9.983835e-01	9.983601e-01	9.983335e-01	9.983047e-01	9.982729e-01	9.982385e-01	9.982005e-01	9.981589e-01	9.981135e-01	9.980635e-01	9.980086e-01	9.979486e-01	9.978833e-01	9.978126e-01	9.977362e-01	9.976535e-01	9.975627e-01	9.974626e-01	9.973515e-01	9.972278e-01	9.970901e-01	9.969372e-01	9.967666e-01	9.965734e-01	9.963477e-01	9.960703e-01	9.957082e-01	9.952098e-01	9.945040e-01	9.935135e-01	9.921975e-01	9.906299e-01	9.890424e-01	9.877480e-01	9.869852e-01	9.867563e-01	9.867768e-01	9.872501e-01	9.887281e-01	9.915539e-01	9.956371e-01	1.000652e+00	1.006192e+00	1.011806e+00	1.016947e+00	1.020993e+00	1.023355e+00	1.023991e+00	1.023837e+00	1.022207e+00	1.017618e+00	1.010449e+00	1.003776e+00	9.999859e-01	9.985604e-01	9.981501e-01	9.980640e-01	9.981353e-01	9.985195e-01	9.998909e-01	1.003584e+00	1.010088e+00	1.016939e+00	1.021090e+00	1.022308e+00	1.022129e+00	1.020988e+00	1.017829e+00	1.012850e+00	1.006618e+00	9.996499e-01	9.925315e-01	9.859522e-01	9.806375e-01	9.771315e-01	9.756584e-01	9.750409e-01	9.986330e-01	9.986324e-01	9.986443e-01	9.986397e-01	9.986379e-01	9.986353e-01	9.986336e-01	9.986320e-01	9.986321e-01	9.986316e-01	9.986262e-01	9.986139e-01	9.985959e-01	9.985755e-01	9.985544e-01	9.985348e-01	9.985191e-01	9.985082e-01	9.984979e-01	9.984872e-01	9.984749e-01	9.984556e-01	9.984334e-01	9.984071e-01	9.983815e-01	9.983544e-01	9.983294e-01	9.983008e-01	9.982697e-01	9.982355e-01	9.981979e-01	9.981568e-01	9.981116e-01	9.980622e-01	9.980080e-01	9.979489e-01	9.978847e-01	9.978150e-01	9.977395e-01	9.976573e-01	9.975673e-01	9.974683e-01	9.973580e-01	9.972355e-01	9.970987e-01	9.969458e-01	9.967740e-01	9.965783e-01	9.963487e-01	9.960663e-01	9.956973e-01	9.951897e-01	9.944745e-01	9.934825e-01	9.921837e-01	9.906481e-01	9.890760e-01	9.877784e-01	9.870672e-01	9.868959e-01	9.869416e-01	9.874402e-01	9.889119e-01	9.916897e-01	9.957410e-01	1.000701e+00	1.006163e+00	1.011695e+00	1.016845e+00	1.020977e+00	1.023205e+00	1.023669e+00	1.023496e+00	1.021961e+00	1.017645e+00	1.010702e+00	1.003926e+00	9.999654e-01	9.985081e-01	9.981214e-01	9.980433e-01	9.980997e-01	9.984539e-01	9.998484e-01	1.003718e+00	1.010339e+00	1.016955e+00	1.020838e+00	1.021966e+00	1.021805e+00	1.020822e+00	1.017776e+00	1.012707e+00	1.006476e+00	9.995961e-01	9.925783e-01	9.860928e-01	9.808426e-01	9.774089e-01	9.759570e-01	9.753216e-01	9.986300e-01	9.986305e-01	9.986406e-01	9.986360e-01	9.986341e-01	9.986316e-01	9.986298e-01	9.986279e-01	9.986284e-01	9.986280e-01	9.986225e-01	9.986102e-01	9.985923e-01	9.985726e-01	9.985538e-01	9.985355e-01	9.985205e-01	9.985082e-01	9.984989e-01	9.984884e-01	9.984758e-01	9.984567e-01	9.984339e-01	9.984080e-01	9.983818e-01	9.983558e-01	9.983289e-01	9.982997e-01	9.982679e-01	9.982328e-01	9.981947e-01	9.981527e-01	9.981068e-01	9.980567e-01	9.980019e-01	9.979424e-01	9.978778e-01	9.978079e-01	9.977321e-01	9.976495e-01	9.975589e-01	9.974596e-01	9.973493e-01	9.972267e-01	9.970895e-01	9.969351e-01	9.967607e-01	9.965608e-01	9.963251e-01	9.960337e-01	9.956529e-01	9.951290e-01	9.943945e-01	9.933868e-01	9.920889e-01	9.905623e-01	9.889915e-01	9.877325e-01	9.871351e-01	9.870268e-01	9.870888e-01	9.876354e-01	9.891520e-01	9.919474e-01	9.959678e-01	1.000885e+00	1.006269e+00	1.011756e+00	1.016962e+00	1.021050e+00	1.023006e+00	1.023363e+00	1.023170e+00	1.021664e+00	1.017526e+00	1.010765e+00	1.004020e+00	1.000004e+00	9.985113e-01	9.981140e-01	9.980313e-01	9.980804e-01	9.984297e-01	9.998512e-01	1.003797e+00	1.010403e+00	1.016831e+00	1.020526e+00	1.021621e+00	1.021476e+00	1.020619e+00	1.017808e+00	1.012735e+00	1.006452e+00	9.996228e-01	9.926879e-01	9.862658e-01	9.810487e-01	9.776917e-01	9.762462e-01	9.755943e-01	9.986314e-01	9.986316e-01	9.986404e-01	9.986354e-01	9.986329e-01	9.986299e-01	9.986274e-01	9.986240e-01	9.986232e-01	9.986217e-01	9.986157e-01	9.986033e-01	9.985861e-01	9.985675e-01	9.985494e-01	9.985326e-01	9.985179e-01	9.985046e-01	9.984955e-01	9.984851e-01	9.984722e-01	9.984547e-01	9.984307e-01	9.984050e-01	9.983787e-01	9.983529e-01	9.983251e-01	9.982951e-01	9.982628e-01	9.982276e-01	9.981888e-01	9.981459e-01	9.980993e-01	9.980484e-01	9.979931e-01	9.979332e-01	9.978685e-01	9.977986e-01	9.977228e-01	9.976402e-01	9.975497e-01	9.974503e-01	9.973402e-01	9.972173e-01	9.970790e-01	9.969227e-01	9.967450e-01	9.965402e-01	9.962968e-01	9.959936e-01	9.955959e-01	9.950493e-01	9.942893e-01	9.932620e-01	9.919559e-01	9.904246e-01	9.888717e-01	9.877300e-01	9.872741e-01	9.872033e-01	9.872939e-01	9.878980e-01	9.894772e-01	9.923023e-01	9.962985e-01	1.001140e+00	1.006435e+00	1.011917e+00	1.017138e+00	1.021016e+00	1.022699e+00	1.022972e+00	1.022768e+00	1.021284e+00	1.017279e+00	1.010732e+00	1.004141e+00	1.000122e+00	9.985640e-01	9.981232e-01	9.980261e-01	9.980758e-01	9.984445e-01	9.999123e-01	1.003876e+00	1.010367e+00	1.016581e+00	1.020129e+00	1.021190e+00	1.021048e+00	1.020304e+00	1.017736e+00	1.012804e+00	1.006492e+00	9.996774e-01	9.928268e-01	9.864827e-01	9.813499e-01	9.781110e-01	9.766585e-01	9.759718e-01	9.986312e-01	9.986312e-01	9.986389e-01	9.986340e-01	9.986308e-01	9.986270e-01	9.986237e-01	9.986206e-01	9.986181e-01	9.986161e-01	9.986095e-01	9.985964e-01	9.985790e-01	9.985610e-01	9.985440e-01	9.985285e-01	9.985144e-01	9.985003e-01	9.984919e-01	9.984816e-01	9.984682e-01	9.984519e-01	9.984264e-01	9.984019e-01	9.983756e-01	9.983504e-01	9.983222e-01	9.982916e-01	9.982586e-01	9.982228e-01	9.981833e-01	9.981401e-01	9.980927e-01	9.980407e-01	9.979844e-01	9.979235e-01	9.978581e-01	9.977877e-01	9.977116e-01	9.976287e-01	9.975381e-01	9.974383e-01	9.973275e-01	9.972032e-01	9.970629e-01	9.969038e-01	9.967221e-01	9.965112e-01	9.962586e-01	9.959412e-01	9.955199e-01	9.949454e-01	9.941567e-01	9.931047e-01	9.917720e-01	9.902255e-01	9.887355e-01	9.877723e-01	9.874477e-01	9.874026e-01	9.875413e-01	9.882253e-01	9.898904e-01	9.927559e-01	9.967146e-01	1.001457e+00	1.006696e+00	1.012186e+00	1.017321e+00	1.020897e+00	1.022322e+00	1.022525e+00	1.022298e+00	1.020807e+00	1.016897e+00	1.010608e+00	1.004273e+00	1.000292e+00	9.986515e-01	9.981462e-01	9.980252e-01	9.980813e-01	9.984936e-01	1.000034e+00	1.003965e+00	1.010221e+00	1.016199e+00	1.019644e+00	1.020694e+00	1.020556e+00	1.019875e+00	1.017571e+00	1.012886e+00	1.006607e+00	9.997750e-01	9.929856e-01	9.867608e-01	9.817895e-01	9.786648e-01	9.771815e-01	9.764485e-01	9.986294e-01	9.986293e-01	9.986354e-01	9.986310e-01	9.986273e-01	9.986228e-01	9.986192e-01	9.986164e-01	9.986140e-01	9.986108e-01	9.986031e-01	9.985893e-01	9.985720e-01	9.985547e-01	9.985387e-01	9.985233e-01	9.985093e-01	9.984960e-01	9.984870e-01	9.984756e-01	9.984625e-01	9.984460e-01	9.984207e-01	9.983964e-01	9.983698e-01	9.983447e-01	9.983163e-01	9.982853e-01	9.982519e-01	9.982155e-01	9.981756e-01	9.981318e-01	9.980837e-01	9.980308e-01	9.979735e-01	9.979118e-01	9.978457e-01	9.977748e-01	9.976983e-01	9.976152e-01	9.975244e-01	9.974238e-01	9.973116e-01	9.971852e-01	9.970424e-01	9.968801e-01	9.966941e-01	9.964763e-01	9.962125e-01	9.958758e-01	9.954278e-01	9.948155e-01	9.939873e-01	9.929000e-01	9.915335e-01	9.899830e-01	9.886179e-01	9.878618e-01	9.876504e-01	9.876356e-01	9.878376e-01	9.886257e-01	9.903949e-01	9.933013e-01	9.972088e-01	1.001857e+00	1.007056e+00	1.012525e+00	1.017474e+00	1.020697e+00	1.021872e+00	1.022016e+00	1.021757e+00	1.020230e+00	1.016398e+00	1.010414e+00	1.004413e+00	1.000513e+00	9.987781e-01	9.981859e-01	9.980305e-01	9.980969e-01	9.985721e-01	1.000196e+00	1.004058e+00	1.009998e+00	1.015696e+00	1.019063e+00	1.020128e+00	1.019998e+00	1.019355e+00	1.017309e+00	1.012927e+00	1.006771e+00	9.999253e-01	9.931750e-01	9.871180e-01	9.823770e-01	9.793538e-01	9.778175e-01	9.770220e-01	9.986227e-01	9.986247e-01	9.986290e-01	9.986251e-01	9.986207e-01	9.986165e-01	9.986134e-01	9.986114e-01	9.986091e-01	9.986053e-01	9.985964e-01	9.985824e-01	9.985659e-01	9.985497e-01	9.985344e-01	9.985196e-01	9.985054e-01	9.984925e-01	9.984812e-01	9.984704e-01	9.984575e-01	9.984384e-01	9.984141e-01	9.983897e-01	9.983639e-01	9.983376e-01	9.983088e-01	9.982773e-01	9.982431e-01	9.982060e-01	9.981654e-01	9.981210e-01	9.980724e-01	9.980189e-01	9.979610e-01	9.978984e-01	9.978315e-01	9.977598e-01	9.976827e-01	9.975992e-01	9.975073e-01	9.974052e-01	9.972905e-01	9.971613e-01	9.970152e-01	9.968493e-01	9.966584e-01	9.964326e-01	9.961542e-01	9.957951e-01	9.953139e-01	9.946617e-01	9.937876e-01	9.926449e-01	9.912310e-01	9.897200e-01	9.885408e-01	9.880018e-01	9.878857e-01	9.879041e-01	9.881887e-01	9.891087e-01	9.909929e-01	9.939314e-01	9.977801e-01	1.002354e+00	1.007513e+00	1.012899e+00	1.017577e+00	1.020420e+00	1.021355e+00	1.021453e+00	1.021137e+00	1.019556e+00	1.015805e+00	1.010171e+00	1.004562e+00	1.000774e+00	9.989400e-01	9.982425e-01	9.980444e-01	9.981239e-01	9.986765e-01	1.000394e+00	1.004152e+00	1.009713e+00	1.015085e+00	1.018380e+00	1.019485e+00	1.019369e+00	1.018760e+00	1.016933e+00	1.012889e+00	1.006938e+00	1.000118e+00	9.934222e-01	9.875816e-01	9.831101e-01	9.801708e-01	9.785656e-01	9.776934e-01	9.986164e-01	9.986212e-01	9.986222e-01	9.986193e-01	9.986140e-01	9.986093e-01	9.986068e-01	9.986052e-01	9.986021e-01	9.985967e-01	9.985869e-01	9.985735e-01	9.985585e-01	9.985437e-01	9.985290e-01	9.985144e-01	9.985005e-01	9.984874e-01	9.984759e-01	9.984652e-01	9.984508e-01	9.984315e-01	9.984082e-01	9.983822e-01	9.983575e-01	9.983297e-01	9.983001e-01	9.982680e-01	9.982330e-01	9.981949e-01	9.981536e-01	9.981083e-01	9.980592e-01	9.980049e-01	9.979465e-01	9.978835e-01	9.978160e-01	9.977438e-01	9.976659e-01	9.975814e-01	9.974880e-01	9.973835e-01	9.972657e-01	9.971328e-01	9.969826e-01	9.968120e-01	9.966147e-01	9.963785e-01	9.960820e-01	9.956945e-01	9.951745e-01	9.944745e-01	9.935428e-01	9.923329e-01	9.908809e-01	9.894620e-01	9.885222e-01	9.881833e-01	9.881448e-01	9.882101e-01	9.886056e-01	9.896794e-01	9.916840e-01	9.946447e-01	9.984335e-01	1.002942e+00	1.008044e+00	1.013277e+00	1.017614e+00	1.020058e+00	1.020775e+00	1.020827e+00	1.020440e+00	1.018794e+00	1.015140e+00	1.009892e+00	1.004713e+00	1.001066e+00	9.991338e-01	9.983168e-01	9.980668e-01	9.981639e-01	9.988079e-01	1.000621e+00	1.004250e+00	1.009387e+00	1.014387e+00	1.017593e+00	1.018751e+00	1.018665e+00	1.018082e+00	1.016456e+00	1.012754e+00	1.007050e+00	1.000328e+00	9.937610e-01	9.881889e-01	9.839936e-01	9.811088e-01	9.794277e-01	9.784712e-01	9.986120e-01	9.986161e-01	9.986149e-01	9.986131e-01	9.986074e-01	9.986030e-01	9.986006e-01	9.985987e-01	9.985941e-01	9.985869e-01	9.985766e-01	9.985638e-01	9.985501e-01	9.985358e-01	9.985218e-01	9.985072e-01	9.984927e-01	9.984804e-01	9.984677e-01	9.984559e-01	9.984420e-01	9.984224e-01	9.983990e-01	9.983760e-01	9.983492e-01	9.983215e-01	9.982914e-01	9.982586e-01	9.982230e-01	9.981839e-01	9.981411e-01	9.980946e-01	9.980444e-01	9.979893e-01	9.979305e-01	9.978671e-01	9.977990e-01	9.977258e-01	9.976468e-01	9.975607e-01	9.974652e-01	9.973580e-01	9.972369e-01	9.971000e-01	9.969452e-01	9.967689e-01	9.965633e-01	9.963133e-01	9.959953e-01	9.955745e-01	9.950093e-01	9.942512e-01	9.932456e-01	9.919600e-01	9.904978e-01	9.892355e-01	9.885783e-01	9.884180e-01	9.884194e-01	9.885587e-01	9.890981e-01	9.903412e-01	9.924640e-01	9.954405e-01	9.991738e-01	1.003612e+00	1.008618e+00	1.013632e+00	1.017573e+00	1.019610e+00	1.020130e+00	1.020137e+00	1.019676e+00	1.017956e+00	1.014427e+00	1.009596e+00	1.004866e+00	1.001378e+00	9.993540e-01	9.984072e-01	9.980959e-01	9.982156e-01	9.989627e-01	1.000867e+00	1.004347e+00	1.009039e+00	1.013631e+00	1.016716e+00	1.017922e+00	1.017882e+00	1.017310e+00	1.015869e+00	1.012503e+00	1.007073e+00	1.000544e+00	9.942124e-01	9.889627e-01	9.850267e-01	9.821613e-01	9.804139e-01	9.793742e-01	9.986064e-01	9.986091e-01	9.986068e-01	9.986054e-01	9.986003e-01	9.985959e-01	9.985931e-01	9.985903e-01	9.985845e-01	9.985762e-01	9.985657e-01	9.985537e-01	9.985412e-01	9.985277e-01	9.985132e-01	9.984981e-01	9.984836e-01	9.984703e-01	9.984577e-01	9.984448e-01	9.984303e-01	9.984113e-01	9.983901e-01	9.983655e-01	9.983391e-01	9.983113e-01	9.982811e-01	9.982479e-01	9.982117e-01	9.981719e-01	9.981276e-01	9.980798e-01	9.980286e-01	9.979727e-01	9.979134e-01	9.978494e-01	9.977804e-01	9.977059e-01	9.976250e-01	9.975364e-01	9.974381e-01	9.973278e-01	9.972030e-01	9.970618e-01	9.969020e-01	9.967187e-01	9.965026e-01	9.962362e-01	9.958916e-01	9.954320e-01	9.948133e-01	9.939842e-01	9.928897e-01	9.915271e-01	9.901049e-01	9.890848e-01	9.887118e-01	9.886741e-01	9.887153e-01	9.889655e-01	9.896767e-01	9.910960e-01	9.933283e-01	9.963178e-01	9.999970e-01	1.004349e+00	1.009208e+00	1.013938e+00	1.017432e+00	1.019074e+00	1.019422e+00	1.019386e+00	1.018841e+00	1.017061e+00	1.013690e+00	1.009300e+00	1.005021e+00	1.001702e+00	9.995942e-01	9.985104e-01	9.981306e-01	9.982775e-01	9.991363e-01	1.001127e+00	1.004443e+00	1.008684e+00	1.012841e+00	1.015768e+00	1.017009e+00	1.017013e+00	1.016442e+00	1.015148e+00	1.012091e+00	1.006996e+00	1.000763e+00	9.947908e-01	9.899082e-01	9.861910e-01	9.833292e-01	9.815435e-01	9.804225e-01	9.985999e-01	9.985999e-01	9.985979e-01	9.985968e-01	9.985918e-01	9.985871e-01	9.985833e-01	9.985800e-01	9.985735e-01	9.985648e-01	9.985544e-01	9.985435e-01	9.985319e-01	9.985191e-01	9.985052e-01	9.984902e-01	9.984753e-01	9.984611e-01	9.984476e-01	9.984332e-01	9.984174e-01	9.983987e-01	9.983771e-01	9.983535e-01	9.983272e-01	9.982991e-01	9.982679e-01	9.982344e-01	9.981977e-01	9.981566e-01	9.981116e-01	9.980628e-01	9.980108e-01	9.979546e-01	9.978948e-01	9.978304e-01	9.977604e-01	9.976843e-01	9.976009e-01	9.975090e-01	9.974069e-01	9.972926e-01	9.971636e-01	9.970174e-01	9.968513e-01	9.966596e-01	9.964303e-01	9.961429e-01	9.957670e-01	9.952618e-01	9.945793e-01	9.936630e-01	9.924646e-01	9.910379e-01	9.897424e-01	9.890671e-01	9.889201e-01	9.889324e-01	9.890485e-01	9.894488e-01	9.903531e-01	9.919445e-01	9.942730e-01	9.972742e-01	1.000896e+00	1.005133e+00	1.009790e+00	1.014160e+00	1.017188e+00	1.018441e+00	1.018653e+00	1.018577e+00	1.017940e+00	1.016122e+00	1.012953e+00	1.009020e+00	1.005182e+00	1.002033e+00	9.998464e-01	9.986238e-01	9.981708e-01	9.983474e-01	9.993229e-01	1.001392e+00	1.004539e+00	1.008332e+00	1.012036e+00	1.014767e+00	1.016020e+00	1.016059e+00	1.015474e+00	1.014272e+00	1.011496e+00	1.006792e+00	1.000995e+00	9.955149e-01	9.910157e-01	9.874588e-01	9.846085e-01	9.828360e-01	9.816653e-01	9.985905e-01	9.985884e-01	9.985875e-01	9.985865e-01	9.985816e-01	9.985763e-01	9.985717e-01	9.985679e-01	9.985615e-01	9.985532e-01	9.985432e-01	9.985326e-01	9.985222e-01	9.985100e-01	9.984967e-01	9.984820e-01	9.984666e-01	9.984515e-01	9.984367e-01	9.984218e-01	9.984056e-01	9.983875e-01	9.983661e-01	9.983418e-01	9.983151e-01	9.982857e-01	9.982538e-01	9.982191e-01	9.981809e-01	9.981383e-01	9.980924e-01	9.980431e-01	9.979902e-01	9.979338e-01	9.978738e-01	9.978089e-01	9.977382e-01	9.976604e-01	9.975743e-01	9.974787e-01	9.973723e-01	9.972530e-01	9.971191e-01	9.969674e-01	9.967938e-01	9.965917e-01	9.963454e-01	9.960325e-01	9.956183e-01	9.950581e-01	9.942980e-01	9.932730e-01	9.919537e-01	9.905197e-01	9.894955e-01	9.891631e-01	9.891461e-01	9.892037e-01	9.894402e-01	9.900241e-01	9.911346e-01	9.928869e-01	9.952940e-01	9.983024e-01	1.001863e+00	1.005946e+00	1.010325e+00	1.014266e+00	1.016794e+00	1.017717e+00	1.017831e+00	1.017705e+00	1.016981e+00	1.015159e+00	1.012239e+00	1.008772e+00	1.005351e+00	1.002364e+00	1.000103e+00	9.987432e-01	9.982151e-01	9.984223e-01	9.995150e-01	1.001655e+00	1.004635e+00	1.007999e+00	1.011241e+00	1.013730e+00	1.014961e+00	1.015020e+00	1.014402e+00	1.013224e+00	1.010676e+00	1.006427e+00	1.001269e+00	9.963932e-01	9.922546e-01	9.888013e-01	9.860030e-01	9.843139e-01	9.831505e-01	9.985786e-01	9.985755e-01	9.985760e-01	9.985747e-01	9.985700e-01	9.985645e-01	9.985594e-01	9.985550e-01	9.985491e-01	9.985404e-01	9.985311e-01	9.985213e-01	9.985109e-01	9.984999e-01	9.984873e-01	9.984735e-01	9.984579e-01	9.984415e-01	9.984249e-01	9.984080e-01	9.983903e-01	9.983726e-01	9.983525e-01	9.983287e-01	9.983016e-01	9.982718e-01	9.982385e-01	9.982017e-01	9.981611e-01	9.981181e-01	9.980709e-01	9.980206e-01	9.979673e-01	9.979103e-01	9.978497e-01	9.977841e-01	9.977123e-01	9.976328e-01	9.975440e-01	9.974445e-01	9.973333e-01	9.972086e-01	9.970692e-01	9.969116e-01	9.967299e-01	9.965137e-01	9.962482e-01	9.959036e-01	9.954424e-01	9.948148e-01	9.939557e-01	9.927934e-01	9.913558e-01	9.900543e-01	9.894358e-01	9.893343e-01	9.893646e-01	9.895117e-01	9.899098e-01	9.907048e-01	9.920243e-01	9.939221e-01	9.963883e-01	9.993920e-01	1.002882e+00	1.006766e+00	1.010783e+00	1.014218e+00	1.016267e+00	1.016914e+00	1.016953e+00	1.016774e+00	1.015974e+00	1.014195e+00	1.011569e+00	1.008564e+00	1.005529e+00	1.002687e+00	1.000356e+00	9.988602e-01	9.982588e-01	9.984976e-01	9.997048e-01	1.001911e+00	1.004732e+00	1.007697e+00	1.010480e+00	1.012682e+00	1.013842e+00	1.013889e+00	1.013215e+00	1.011991e+00	1.009611e+00	1.005935e+00	1.001616e+00	9.973926e-01	9.935651e-01	9.902150e-01	9.875358e-01	9.859981e-01	9.848987e-01	9.985667e-01	9.985618e-01	9.985617e-01	9.985623e-01	9.985573e-01	9.985521e-01	9.985466e-01	9.985419e-01	9.985359e-01	9.985277e-01	9.985183e-01	9.985094e-01	9.984999e-01	9.984890e-01	9.984775e-01	9.984636e-01	9.984481e-01	9.984304e-01	9.984112e-01	9.983920e-01	9.983724e-01	9.983551e-01	9.983361e-01	9.983138e-01	9.982866e-01	9.982561e-01	9.982208e-01	9.981826e-01	9.981414e-01	9.980959e-01	9.980481e-01	9.979972e-01	9.979431e-01	9.978853e-01	9.978234e-01	9.977564e-01	9.976828e-01	9.976008e-01	9.975086e-01	9.974048e-01	9.972880e-01	9.971579e-01	9.970123e-01	9.968482e-01	9.966581e-01	9.964283e-01	9.961368e-01	9.957531e-01	9.952343e-01	9.945214e-01	9.935293e-01	9.921953e-01	9.907240e-01	9.897568e-01	9.895088e-01	9.895108e-01	9.895998e-01	9.898829e-01	9.904782e-01	9.915006e-01	9.930214e-01	9.950461e-01	9.975522e-01	1.000530e+00	1.003930e+00	1.007566e+00	1.011110e+00	1.014006e+00	1.015607e+00	1.016035e+00	1.016026e+00	1.015789e+00	1.014942e+00	1.013262e+00	1.010966e+00	1.008403e+00	1.005713e+00	1.002997e+00	1.000596e+00	9.989671e-01	9.982954e-01	9.985662e-01	9.998836e-01	1.002151e+00	1.004829e+00	1.007434e+00	1.009775e+00	1.011649e+00	1.012671e+00	1.012659e+00	1.011892e+00	1.010561e+00	1.008343e+00	1.005391e+00	1.002019e+00	9.984293e-01	9.948895e-01	9.917192e-01	9.892533e-01	9.878976e-01	9.868882e-01	9.985546e-01	9.985478e-01	9.985472e-01	9.985478e-01	9.985441e-01	9.985393e-01	9.985333e-01	9.985283e-01	9.985218e-01	9.985140e-01	9.985048e-01	9.984966e-01	9.984878e-01	9.984784e-01	9.984668e-01	9.984527e-01	9.984362e-01	9.984165e-01	9.983958