# vtk DataFile Version 3.0
vtk output
ASCII
DATASET STRUCTURED_GRID
DIMENSIONS 101 101 1
POINTS 10201 double
0.000000e+00	0.000000e+00	0.0	1.000000e-02	0.000000e+00	0.0	2.000000e-02	0.000000e+00	0.0	3.000000e-02	0.000000e+00	0.0	4.000000e-02	0.000000e+00	0.0	5.000000e-02	0.000000e+00	0.0	6.000000e-02	0.000000e+00	0.0	7.000000e-02	0.000000e+00	0.0	8.000000e-02	0.000000e+00	0.0	9.000000e-02	0.000000e+00	0.0	1.000000e-01	0.000000e+00	0.0	1.100000e-01	0.000000e+00	0.0	1.200000e-01	0.000000e+00	0.0	1.300000e-01	0.000000e+00	0.0	1.400000e-01	0.000000e+00	0.0	1.500000e-01	0.000000e+00	0.0	1.600000e-01	0.000000e+00	0.0	1.700000e-01	0.000000e+00	0.0	1.800000e-01	0.000000e+00	0.0	1.900000e-01	0.000000e+00	0.0	2.000000e-01	0.000000e+00	0.0	2.100000e-01	0.000000e+00	0.0	2.200000e-01	0.000000e+00	0.0	2.300000e-01	0.000000e+00	0.0	2.400000e-01	0.000000e+00	0.0	2.500000e-01	0.000000e+00	0.0	2.600000e-01	0.000000e+00	0.0	2.700000e-01	0.000000e+00	0.0	2.800000e-01	0.000000e+00	0.0	2.900000e-01	0.000000e+00	0.0	3.000000e-01	0.000000e+00	0.0	3.100000e-01	0.000000e+00	0.0	3.200000e-01	0.000000e+00	0.0	3.300000e-01	0.000000e+00	0.0	3.400000e-01	0.000000e+00	0.0	3.500000e-01	0.000000e+00	0.0	3.600000e-01	0.000000e+00	0.0	3.700000e-01	0.000000e+00	0.0	3.800000e-01	0.000000e+00	0.0	3.900000e-01	0.000000e+00	0.0	4.000000e-01	0.000000e+00	0.0	4.100000e-01	0.000000e+00	0.0	4.200000e-01	0.000000e+00	0.0	4.300000e-01	0.000000e+00	0.0	4.400000e-01	0.000000e+00	0.0	4.500000e-01	0.000000e+00	0.0	4.600000e-01	0.000000e+00	0.0	4.700000e-01	0.000000e+00	0.0	4.800000e-01	0.000000e+00	0.0	4.900000e-01	0.000000e+00	0.0	5.000000e-01	0.000000e+00	0.0	5.100000e-01	0.000000e+00	0.0	5.200000e-01	0.000000e+00	0.0	5.300000e-01	0.000000e+00	0.0	5.400000e-01	0.000000e+00	0.0	5.500000e-01	0.000000e+00	0.0	5.600000e-01	0.000000e+00	0.0	5.700000e-01	0.000000e+00	0.0	5.800000e-01	0.000000e+00	0.0	5.900000e-01	0.000000e+00	0.0	6.000000e-01	0.000000e+00	0.0	6.100000e-01	0.000000e+00	0.0	6.200000e-01	0.000000e+00	0.0	6.300000e-01	0.000000e+00	0.0	6.400000e-01	0.000000e+00	0.0	6.500000e-01	0.000000e+00	0.0	6.600000e-01	0.000000e+00	0.0	6.700000e-01	0.000000e+00	0.0	6.800000e-01	0.000000e+00	0.0	6.900000e-01	0.000000e+00	0.0	7.000000e-01	0.000000e+00	0.0	7.100000e-01	0.000000e+00	0.0	7.200000e-01	0.000000e+00	0.0	7.300000e-01	0.000000e+00	0.0	7.400000e-01	0.000000e+00	0.0	7.500000e-01	0.000000e+00	0.0	7.600000e-01	0.000000e+00	0.0	7.700000e-01	0.000000e+00	0.0	7.800000e-01	0.000000e+00	0.0	7.900000e-01	0.000000e+00	0.0	8.000000e-01	0.000000e+00	0.0	8.100000e-01	0.000000e+00	0.0	8.200000e-01	0.000000e+00	0.0	8.300000e-01	0.000000e+00	0.0	8.400000e-01	0.000000e+00	0.0	8.500000e-01	0.000000e+00	0.0	8.600000e-01	0.000000e+00	0.0	8.700000e-01	0.000000e+00	0.0	8.800000e-01	0.000000e+00	0.0	8.900000e-01	0.000000e+00	0.0	9.000000e-01	0.000000e+00	0.0	9.100000e-01	0.000000e+00	0.0	9.200000e-01	0.000000e+00	0.0	9.300000e-01	0.000000e+00	0.0	9.400000e-01	0.000000e+00	0.0	9.500000e-01	0.000000e+00	0.0	9.600000e-01	0.000000e+00	0.0	9.700000e-01	0.000000e+00	0.0	9.800000e-01	0.000000e+00	0.0	9.900000e-01	0.000000e+00	0.0	1.000000e+00	0.000000e+00	0.0	0.000000e+00	1.000000e-02	0.0	1.000000e-02	1.000000e-02	0.0	2.000000e-02	1.000000e-02	0.0	3.000000e-02	1.000000e-02	0.0	4.000000e-02	1.000000e-02	0.0	5.000000e-02	1.000000e-02	0.0	6.000000e-02	1.000000e-02	0.0	7.000000e-02	1.000000e-02	0.0	8.000000e-02	1.000000e-02	0.0	9.000000e-02	1.000000e-02	0.0	1.000000e-01	1.000000e-02	0.0	1.100000e-01	1.000000e-02	0.0	1.200000e-01	1.000000e-02	0.0	1.300000e-01	1.000000e-02	0.0	1.400000e-01	1.000000e-02	0.0	1.500000e-01	1.000000e-02	0.0	1.600000e-01	1.000000e-02	0.0	1.700000e-01	1.000000e-02	0.0	1.800000e-01	1.000000e-02	0.0	1.900000e-01	1.000000e-02	0.0	2.000000e-01	1.000000e-02	0.0	2.100000e-01	1.000000e-02	0.0	2.200000e-01	1.000000e-02	0.0	2.300000e-01	1.000000e-02	0.0	2.400000e-01	1.000000e-02	0.0	2.500000e-01	1.000000e-02	0.0	2.600000e-01	1.000000e-02	0.0	2.700000e-01	1.000000e-02	0.0	2.800000e-01	1.000000e-02	0.0	2.900000e-01	1.000000e-02	0.0	3.000000e-01	1.000000e-02	0.0	3.100000e-01	1.000000e-02	0.0	3.200000e-01	1.000000e-02	0.0	3.300000e-01	1.000000e-02	0.0	3.400000e-01	1.000000e-02	0.0	3.500000e-01	1.000000e-02	0.0	3.600000e-01	1.000000e-02	0.0	3.700000e-01	1.000000e-02	0.0	3.800000e-01	1.000000e-02	0.0	3.900000e-01	1.000000e-02	0.0	4.000000e-01	1.000000e-02	0.0	4.100000e-01	1.000000e-02	0.0	4.200000e-01	1.000000e-02	0.0	4.300000e-01	1.000000e-02	0.0	4.400000e-01	1.000000e-02	0.0	4.500000e-01	1.000000e-02	0.0	4.600000e-01	1.000000e-02	0.0	4.700000e-01	1.000000e-02	0.0	4.800000e-01	1.000000e-02	0.0	4.900000e-01	1.000000e-02	0.0	5.000000e-01	1.000000e-02	0.0	5.100000e-01	1.000000e-02	0.0	5.200000e-01	1.000000e-02	0.0	5.300000e-01	1.000000e-02	0.0	5.400000e-01	1.000000e-02	0.0	5.500000e-01	1.000000e-02	0.0	5.600000e-01	1.000000e-02	0.0	5.700000e-01	1.000000e-02	0.0	5.800000e-01	1.000000e-02	0.0	5.900000e-01	1.000000e-02	0.0	6.000000e-01	1.000000e-02	0.0	6.100000e-01	1.000000e-02	0.0	6.200000e-01	1.000000e-02	0.0	6.300000e-01	1.000000e-02	0.0	6.400000e-01	1.000000e-02	0.0	6.500000e-01	1.000000e-02	0.0	6.600000e-01	1.000000e-02	0.0	6.700000e-01	1.000000e-02	0.0	6.800000e-01	1.000000e-02	0.0	6.900000e-01	1.000000e-02	0.0	7.000000e-01	1.000000e-02	0.0	7.100000e-01	1.000000e-02	0.0	7.200000e-01	1.000000e-02	0.0	7.300000e-01	1.000000e-02	0.0	7.400000e-01	1.000000e-02	0.0	7.500000e-01	1.000000e-02	0.0	7.600000e-01	1.000000e-02	0.0	7.700000e-01	1.000000e-02	0.0	7.800000e-01	1.000000e-02	0.0	7.900000e-01	1.000000e-02	0.0	8.000000e-01	1.000000e-02	0.0	8.100000e-01	1.000000e-02	0.0	8.200000e-01	1.000000e-02	0.0	8.300000e-01	1.000000e-02	0.0	8.400000e-01	1.000000e-02	0.0	8.500000e-01	1.000000e-02	0.0	8.600000e-01	1.000000e-02	0.0	8.700000e-01	1.000000e-02	0.0	8.800000e-01	1.000000e-02	0.0	8.900000e-01	1.000000e-02	0.0	9.000000e-01	1.000000e-02	0.0	9.100000e-01	1.000000e-02	0.0	9.200000e-01	1.000000e-02	0.0	9.300000e-01	1.000000e-02	0.0	9.400000e-01	1.000000e-02	0.0	9.500000e-01	1.000000e-02	0.0	9.600000e-01	1.000000e-02	0.0	9.700000e-01	1.000000e-02	0.0	9.800000e-01	1.000000e-02	0.0	9.900000e-01	1.000000e-02	0.0	1.000000e+00	1.000000e-02	0.0	0.000000e+00	2.000000e-02	0.0	1.000000e-02	2.000000e-02	0.0	2.000000e-02	2.000000e-02	0.0	3.000000e-02	2.000000e-02	0.0	4.000000e-02	2.000000e-02	0.0	5.000000e-02	2.000000e-02	0.0	6.000000e-02	2.000000e-02	0.0	7.000000e-02	2.000000e-02	0.0	8.000000e-02	2.000000e-02	0.0	9.000000e-02	2.000000e-02	0.0	1.000000e-01	2.000000e-02	0.0	1.100000e-01	2.000000e-02	0.0	1.200000e-01	2.000000e-02	0.0	1.300000e-01	2.000000e-02	0.0	1.400000e-01	2.000000e-02	0.0	1.500000e-01	2.000000e-02	0.0	1.600000e-01	2.000000e-02	0.0	1.700000e-01	2.000000e-02	0.0	1.800000e-01	2.000000e-02	0.0	1.900000e-01	2.000000e-02	0.0	2.000000e-01	2.000000e-02	0.0	2.100000e-01	2.000000e-02	0.0	2.200000e-01	2.000000e-02	0.0	2.300000e-01	2.000000e-02	0.0	2.400000e-01	2.000000e-02	0.0	2.500000e-01	2.000000e-02	0.0	2.600000e-01	2.000000e-02	0.0	2.700000e-01	2.000000e-02	0.0	2.800000e-01	2.000000e-02	0.0	2.900000e-01	2.000000e-02	0.0	3.000000e-01	2.000000e-02	0.0	3.100000e-01	2.000000e-02	0.0	3.200000e-01	2.000000e-02	0.0	3.300000e-01	2.000000e-02	0.0	3.400000e-01	2.000000e-02	0.0	3.500000e-01	2.000000e-02	0.0	3.600000e-01	2.000000e-02	0.0	3.700000e-01	2.000000e-02	0.0	3.800000e-01	2.000000e-02	0.0	3.900000e-01	2.000000e-02	0.0	4.000000e-01	2.000000e-02	0.0	4.100000e-01	2.000000e-02	0.0	4.200000e-01	2.000000e-02	0.0	4.300000e-01	2.000000e-02	0.0	4.400000e-01	2.000000e-02	0.0	4.500000e-01	2.000000e-02	0.0	4.600000e-01	2.000000e-02	0.0	4.700000e-01	2.000000e-02	0.0	4.800000e-01	2.000000e-02	0.0	4.900000e-01	2.000000e-02	0.0	5.000000e-01	2.000000e-02	0.0	5.100000e-01	2.000000e-02	0.0	5.200000e-01	2.000000e-02	0.0	5.300000e-01	2.000000e-02	0.0	5.400000e-01	2.000000e-02	0.0	5.500000e-01	2.000000e-02	0.0	5.600000e-01	2.000000e-02	0.0	5.700000e-01	2.000000e-02	0.0	5.800000e-01	2.000000e-02	0.0	5.900000e-01	2.000000e-02	0.0	6.000000e-01	2.000000e-02	0.0	6.100000e-01	2.000000e-02	0.0	6.200000e-01	2.000000e-02	0.0	6.300000e-01	2.000000e-02	0.0	6.400000e-01	2.000000e-02	0.0	6.500000e-01	2.000000e-02	0.0	6.600000e-01	2.000000e-02	0.0	6.700000e-01	2.000000e-02	0.0	6.800000e-01	2.000000e-02	0.0	6.900000e-01	2.000000e-02	0.0	7.000000e-01	2.000000e-02	0.0	7.100000e-01	2.000000e-02	0.0	7.200000e-01	2.000000e-02	0.0	7.300000e-01	2.000000e-02	0.0	7.400000e-01	2.000000e-02	0.0	7.500000e-01	2.000000e-02	0.0	7.600000e-01	2.000000e-02	0.0	7.700000e-01	2.000000e-02	0.0	7.800000e-01	2.000000e-02	0.0	7.900000e-01	2.000000e-02	0.0	8.000000e-01	2.000000e-02	0.0	8.100000e-01	2.000000e-02	0.0	8.200000e-01	2.000000e-02	0.0	8.300000e-01	2.000000e-02	0.0	8.400000e-01	2.000000e-02	0.0	8.500000e-01	2.000000e-02	0.0	8.600000e-01	2.000000e-02	0.0	8.700000e-01	2.000000e-02	0.0	8.800000e-01	2.000000e-02	0.0	8.900000e-01	2.000000e-02	0.0	9.000000e-01	2.000000e-02	0.0	9.100000e-01	2.000000e-02	0.0	9.200000e-01	2.000000e-02	0.0	9.300000e-01	2.000000e-02	0.0	9.400000e-01	2.000000e-02	0.0	9.500000e-01	2.000000e-02	0.0	9.600000e-01	2.000000e-02	0.0	9.700000e-01	2.000000e-02	0.0	9.800000e-01	2.000000e-02	0.0	9.900000e-01	2.000000e-02	0.0	1.000000e+00	2.000000e-02	0.0	0.000000e+00	3.000000e-02	0.0	1.000000e-02	3.000000e-02	0.0	2.000000e-02	3.000000e-02	0.0	3.000000e-02	3.000000e-02	0.0	4.000000e-02	3.000000e-02	0.0	5.000000e-02	3.000000e-02	0.0	6.000000e-02	3.000000e-02	0.0	7.000000e-02	3.000000e-02	0.0	8.000000e-02	3.000000e-02	0.0	9.000000e-02	3.000000e-02	0.0	1.000000e-01	3.000000e-02	0.0	1.100000e-01	3.000000e-02	0.0	1.200000e-01	3.000000e-02	0.0	1.300000e-01	3.000000e-02	0.0	1.400000e-01	3.000000e-02	0.0	1.500000e-01	3.000000e-02	0.0	1.600000e-01	3.000000e-02	0.0	1.700000e-01	3.000000e-02	0.0	1.800000e-01	3.000000e-02	0.0	1.900000e-01	3.000000e-02	0.0	2.000000e-01	3.000000e-02	0.0	2.100000e-01	3.000000e-02	0.0	2.200000e-01	3.000000e-02	0.0	2.300000e-01	3.000000e-02	0.0	2.400000e-01	3.000000e-02	0.0	2.500000e-01	3.000000e-02	0.0	2.600000e-01	3.000000
[...]
POINT_DATA 10201

SCALARS Height double 1
LOOKUP_TABLE default
9.435019e-01	9.449123e-01	9.480764e-01	9.545400e-01	9.638669e-01	9.759059e-01	9.904288e-01	1.006166e+00	1.021066e+00	1.033150e+00	1.041501e+00	1.045864e+00	1.046214e+00	1.040117e+00	1.024803e+00	1.007696e+00	9.968673e-01	9.925966e-01	9.914315e-01	9.912301e-01	9.912398e-01	9.912587e-01	9.912234e-01	9.911175e-01	9.909469e-01	9.907188e-01	9.904272e-01	9.900472e-01	9.895614e-01	9.889447e-01	9.881511e-01	9.870953e-01	9.856438e-01	9.836303e-01	9.809383e-01	9.777210e-01	9.745512e-01	9.721970e-01	9.709830e-01	9.707440e-01	9.711719e-01	9.726437e-01	9.753753e-01	9.796874e-01	9.861639e-01	9.952333e-01	1.007127e+00	1.021208e+00	1.035247e+00	1.046518e+00	1.054004e+00	1.057688e+00	1.057706e+00	1.051533e+00	1.036058e+00	1.017812e+00	1.006143e+00	1.001646e+00	1.000410e+00	1.000111e+00	1.000034e+00	1.000011e+00	1.000003e+00	1.000001e+00	1.000000e+00	1.000000e+00	1.000000e+00	1.000000e+00	1.000000e+00	1.000000e+00	1.000000e+00	1.000000e+00	1.000000e+00	1.000000e+00	1.000000e+00	1.000000e+00	1.000000e+00	1.000000e+00	1.000000e+00	1.000000e+00	1.000000e+00	1.000000e+00	1.000000e+00	1.000000e+00	1.000000e+00	1.000000e+00	1.000000e+00	1.000000e+00	1.000000e+00	1.000000e+00	1.000000e+00	1.000000e+00	1.000000e+00	1.000000e+00	1.000000e+00	1.000000e+00	1.000000e+00	1.000000e+00	1.000000e+00	1.000000e+00	1.000000e+00	9.449123e-01	9.463130e-01	9.493139e-01	9.558849e-01	9.652568e-01	9.771116e-01	9.911185e-01	1.006278e+00	1.020902e+00	1.032988e+00	1.041240e+00	1.044516e+00	1.044387e+00	1.038255e+00	1.023573e+00	1.006696e+00	9.959938e-01	9.918956e-01	9.909132e-01	9.907826e-01	9.908068e-01	9.908241e-01	9.907861e-01	9.906725e-01	9.904844e-01	9.902285e-01	9.898908e-01	9.894555e-01	9.888895e-01	9.881704e-01	9.872536e-01	9.860660e-01	9.845127e-01	9.825095e-01	9.800470e-01	9.772835e-01	9.746050e-01	9.725121e-01	9.713139e-01	9.711520e-01	9.716638e-01	9.733249e-01	9.764205e-01	9.810771e-01	9.877834e-01	9.970226e-01	1.008831e+00	1.022579e+00	1.036517e+00	1.047914e+00	1.054747e+00	1.057082e+00	1.056574e+00	1.050197e+00	1.035283e+00	1.017254e+00	1.005684e+00	1.001354e+00	1.000296e+00	1.000078e+00	1.000025e+00	1.000008e+00	1.000003e+00	1.000001e+00	1.000000e+00	1.000000e+00	1.000000e+00	1.000000e+00	1.000000e+00	1.000000e+00	1.000000e+00	1.000000e+00	1.000000e+00	1.000000e+00	1.000000e+00	1.000000e+00	1.000000e+00	1.000000e+00	1.000000e+00	1.000000e+00	1.000000e+00	1.000000e+00	1.000000e+00	1.000000e+00	1.000000e+00	1.000000e+00	1.000000e+00	1.000000e+00	1.000000e+00	1.000000e+00	1.000000e+00	1.000000e+00	1.000000e+00	1.000000e+00	1.000000e+00	1.000000e+00	1.000000e+00	1.000000e+00	1.000000e+00	1.000000e+00	1.000000e+00	9.480764e-01	9.493139e-01	9.527631e-01	9.596616e-01	9.686492e-01	9.794982e-01	9.916312e-01	1.004620e+00	1.017664e+00	1.029335e+00	1.036895e+00	1.039503e+00	1.039251e+00	1.033680e+00	1.022361e+00	1.009716e+00	9.992457e-01	9.931771e-01	9.910101e-01	9.905091e-01	9.904305e-01	9.904072e-01	9.903522e-01	9.902302e-01	9.900191e-01	9.897112e-01	9.893086e-01	9.887810e-01	9.881124e-01	9.872798e-01	9.862584e-01	9.850268e-01	9.835899e-01	9.820231e-01	9.804536e-01	9.788941e-01	9.771386e-01	9.751283e-01	9.734859e-01	9.727885e-01	9.730434e-01	9.747555e-01	9.782989e-01	9.833655e-01	9.900842e-01	9.989102e-01	1.009684e+00	1.021704e+00	1.033987e+00	1.044503e+00	1.051001e+00	1.053011e+00	1.052133e+00	1.046173e+00	1.034100e+00	1.021093e+00	1.009769e+00	1.002985e+00	1.000638e+00	1.000132e+00	1.000035e+00	1.000011e+00	1.000004e+00	1.000001e+00	1.000000e+00	1.000000e+00	1.000000e+00	1.000000e+00	1.000000e+00	1.000000e+00	1.000000e+00	1.000000e+00	1.000000e+00	1.000000e+00	1.000000e+00	1.000000e+00	1.000000e+00	1.000000e+00	1.000000e+00	1.000000e+00	1.000000e+00	1.000000e+00	1.000000e+00	1.000000e+00	1.000000e+00	1.000000e+00	1.000000e+00	1.000000e+00	1.000000e+00	1.000000e+00	1.000000e+00	1.000000e+00	1.000000e+00	1.000000e+00	1.000000e+00	1.000000e+00	1.000000e+00	1.000000e+00	1.000000e+00	1.000000e+00	1.000000e+00	9.545400e-01	9.558849e-01	9.596616e-01	9.661941e-01	9.741552e-01	9.832442e-01	9.933081e-01	1.003994e+00	1.014865e+00	1.024814e+00	1.030506e+00	1.031920e+00	1.030979e+00	1.025714e+00	1.018102e+00	1.010535e+00	1.002269e+00	9.948167e-01	9.908545e-01	9.896519e-01	9.893823e-01	9.892937e-01	9.892025e-01	9.890454e-01	9.887834e-01	9.884028e-01	9.878957e-01	9.872495e-01	9.864649e-01	9.855472e-01	9.845204e-01	9.834351e-01	9.823696e-01	9.814136e-01	9.805808e-01	9.797639e-01	9.787651e-01	9.776688e-01	9.765808e-01	9.760449e-01	9.763403e-01	9.781108e-01	9.819202e-01	9.874004e-01	9.945207e-01	1.003114e+00	1.012723e+00	1.022501e+00	1.031968e+00	1.040969e+00	1.046786e+00	1.047774e+00	1.046013e+00	1.039543e+00	1.030896e+00	1.023013e+00	1.014410e+00	1.006078e+00	1.001548e+00	1.000291e+00	1.000060e+00	1.000017e+00	1.000006e+00	1.000002e+00	1.000000e+00	1.000000e+00	1.000000e+00	1.000000e+00	1.000000e+00	1.000000e+00	1.000000e+00	1.000000e+00	1.000000e+00	1.000000e+00	1.000000e+00	1.000000e+00	1.000000e+00	1.000000e+00	1.000000e+00	1.000000e+00	1.000000e+00	1.000000e+00	1.000000e+00	1.000000e+00	1.000000e+00	1.000000e+00	1.000000e+00	1.000000e+00	1.000000e+00	1.000000e+00	1.000000e+00	1.000000e+00	1.000000e+00	1.000000e+00	1.000000e+00	1.000000e+00	1.000000e+00	1.000000e+00	1.000000e+00	1.000000e+00	1.000000e+00	9.638669e-01	9.652568e-01	9.686492e-01	9.741552e-01	9.806310e-01	9.877613e-01	9.954481e-01	1.003574e+00	1.011623e+00	1.018582e+00	1.022574e+00	1.023425e+00	1.022139e+00	1.018164e+00	1.014144e+00	1.010374e+00	1.004684e+00	9.968888e-01	9.909878e-01	9.885526e-01	9.878984e-01	9.876914e-01	9.875426e-01	9.873402e-01	9.870360e-01	9.866124e-01	9.860679e-01	9.854216e-01	9.847054e-01	9.839710e-01	9.832712e-01	9.826337e-01	9.820670e-01	9.815435e-01	9.810271e-01	9.805925e-01	9.804357e-01	9.803812e-01	9.803231e-01	9.804785e-01	9.811354e-01	9.833164e-01	9.874416e-01	9.931977e-01	1.000184e+00	1.007807e+00	1.015267e+00	1.022233e+00	1.029143e+00	1.036043e+00	1.040254e+00	1.040600e+00	1.038563e+00	1.033195e+00	1.028206e+00	1.024281e+00	1.018698e+00	1.010377e+00	1.003425e+00	1.000708e+00	1.000128e+00	1.000029e+00	1.000009e+00	1.000003e+00	1.000001e+00	1.000000e+00	1.000000e+00	1.000000e+00	1.000000e+00	1.000000e+00	1.000000e+00	1.000000e+00	1.000000e+00	1.000000e+00	1.000000e+00	1.000000e+00	1.000000e+00	1.000000e+00	1.000000e+00	1.000000e+00	1.000000e+00	1.000000e+00	1.000000e+00	1.000000e+00	1.000000e+00	1.000000e+00	1.000000e+00	1.000000e+00	1.000000e+00	1.000000e+00	1.000000e+00	1.000000e+00	1.000000e+00	1.000000e+00	1.000000e+00	1.000000e+00	1.000000e+00	1.000000e+00	1.000000e+00	1.000000e+00	1.000000e+00	9.759059e-01	9.771116e-01	9.794982e-01	9.832442e-01	9.877613e-01	9.927252e-01	9.978681e-01	1.003019e+00	1.007857e+00	1.011325e+00	1.013544e+00	1.014400e+00	1.013997e+00	1.012543e+00	1.011320e+00	1.009845e+00	1.006362e+00	9.993793e-01	9.917082e-01	9.876036e-01	9.862944e-01	9.859014e-01	9.857030e-01	9.855048e-01	9.852546e-01	9.849383e-01	9.845611e-01	9.841499e-01	9.837424e-01	9.833660e-01	9.830183e-01	9.826680e-01	9.822845e-01	9.819192e-01	9.817854e-01	9.820100e-01	9.825982e-01	9.835802e-01	9.847551e-01	9.859977e-01	9.876110e-01	9.902534e-01	9.944547e-01	1.000113e+00	1.006245e+00	1.011809e+00	1.016531e+00	1.021023e+00	1.025917e+00	1.029645e+00	1.031557e+00	1.031718e+00	1.030548e+00	1.028245e+00	1.026526e+00	1.024905e+00	1.021771e+00	1.014746e+00	1.006309e+00	1.001599e+00	1.000294e+00	1.000057e+00	1.000014e+00	1.000004e+00	1.000001e+00	1.000000e+00	1.000000e+00	1.000000e+00	1.000000e+00	1.000000e+00	1.000000e+00	1.000000e+00	1.000000e+00	1.000000e+00	1.000000e+00	1.000000e+00	1.000000e+00	1.000000e+00	1.000000e+00	1.000000e+00	1.000000e+00	1.000000e+00	1.000000e+00	1.000000e+00	1.000000e+00	1.000000e+00	1.000000e+00	1.000000e+00	1.000000e+00	1.000000e+00	1.000000e+00	1.000000e+00	1.000000e+00	1.000000e+00	1.000000e+00	1.000000e+00	1.000000e+00	1.000000e+00	1.000000e+00	1.000000e+00	1.000000e+00	9.904288e-01	9.911185e-01	9.916312e-01	9.933081e-01	9.954481e-01	9.978681e-01	1.000162e+00	1.001936e+00	1.003256e+00	1.003800e+00	1.004242e+00	1.005568e+00	1.007871e+00	1.008924e+00	1.009387e+00	1.009357e+00	1.007516e+00	1.001997e+00	9.939862e-01	9.879910e-01	9.855651e-01	9.848608e-01	9.846280e-01	9.845024e-01	9.843915e-01	9.842625e-01	9.840980e-01	9.838959e-01	9.836737e-01	9.834410e-01	9.831936e-01	9.829674e-01	9.828491e-01	9.829919e-01	9.834467e-01	9.843868e-01	9.858199e-01	9.877453e-01	9.900557e-01	9.925897e-01	9.953401e-01	9.985602e-01	1.002605e+00	1.007164e+00	1.011230e+00	1.014149e+00	1.016451e+00	1.019246e+00	1.021188e+00	1.021560e+00	1.021414e+00	1.021888e+00	1.023850e+00	1.025297e+00	1.025449e+00	1.025260e+00	1.023616e+00	1.018316e+00	1.009788e+00	1.003148e+00	1.000655e+00	1.000118e+00	1.000025e+00	1.000007e+00	1.000002e+00	1.000001e+00	1.000000e+00	1.000000e+00	1.000000e+00	1.000000e+00	1.000000e+00	1.000000e+00	1.000000e+00	1.000000e+00	1.000000e+00	1.000000e+00	1.000000e+00	1.000000e+00	1.000000e+00	1.000000e+00	1.000000e+00	1.000000e+00	1.000000e+00	1.000000e+00	1.000000e+00	1.000000e+00	1.000000e+00	1.000000e+00	1.000000e+00	1.000000e+00	1.000000e+00	1.000000e+00	1.000000e+00	1.000000e+00	1.000000e+00	1.000000e+00	1.000000e+00	1.000000e+00	1.000000e+00	1.000000e+00	1.000000e+00	1.006166e+00	1.006278e+00	1.004620e+00	1.003994e+00	1.003574e+00	1.003019e+00	1.001936e+00	1.000153e+00	9.978267e-01	9.965999e-01	9.963908e-01	9.985556e-01	1.003483e+00	1.007228e+00	1.008523e+00	1.008952e+00	1.008173e+00	1.004275e+00	9.968104e-01	9.897014e-01	9.861143e-01	9.849201e-01	9.845718e-01	9.844404e-01	9.843595e-01	9.842722e-01	9.841618e-01	9.840305e-01	9.838998e-01	9.838067e-01	9.838194e-01	9.839998e-01	9.844062e-01	9.852098e-01	9.864398e-01	9.881499e-01	9.903991e-01	9.931907e-01	9.964730e-01	1.000121e+00	1.003845e+00	1.007342e+00	1.010403e+00	1.012725e+00	1.014098e+00	1.014868e+00	1.015711e+00	1.015692e+00	1.014178e+00	1.012162e+00	1.011416e+00	1.013296e+00	1.018933e+00	1.023615e+00	1.024996e+00	1.025236e+00	1.024392e+00	1.020789e+00	1.013234e+00	1.005352e+00	1.001332e+00	1.000246e+00	1.000046e+00	1.000011e+00	1.000003e+00	1.000001e+00	1.000000e+00	1.000000e+00	1.000000e+00	1.000000e+00	1.000000e+00	1.000000e+00	1.000000e+00	1.000000e+00	1.000000e+00	1.000000e+00	1.000000e+00	1.000000e+00	1.000000e+00	1.000000e+00	1.000000e+00	1.000000e+00	1.000000e+00	1.000000e+00	1.000000e+00	1.000000e+00	1.000000e+00	1.000000e+00	1.000000e+00	1.000000e+00	1.000000e+00	1.000000e+00	1.000000e+00	1.000000e+00	1.000000e+00	1.000000e+00	1.000000e+00	1.000000e+00	1.000000e+00	1.000000e+00	1.000000e+00	1.021066e+00	1.020902e+00	1.017664e+00	1.014865e+00	1.011623e+00	1.007857e+00	1.003256e+00	9.978267e-01	9.934061e-01	9.915457e-01	9.914619e-01	9.946802e-01	1.000973e+00	1.006206e+00	1.008426e+00	1.009136e+00	1.008962e+00	1.006195e+00	9.998271e-01	9.921918e-01	9.872507e-01	9.854007e-01	9.848733e-01	9.847021e-01	9.846309e-01	9.846058e-01	9.846135e-01	9.846733e-01	9.848279e-01	9.851122e-01	9.855832e-01	9.863511e-01	9.874612e-01	9.889726e-01	9.909334e-01	9.933953e-01	9.963954e-01	9.999360e-01	1.003966e+00	1.008246e+00	1.012164e+00	1.014862e+00	1.015942e+00	1.015901e+00	1.015184e+00	1.014646e+00	1.013352e+00	1.009728e+00	1.005220e+00	1.002903e+00	1.002982e+00	1.007440e+00	1.015669e+00	1.022115e+00	1.024594e+00	1.024989e+00	1.024691e+00	1.022303e+00	1.016178e+00	1.007968e+00	1.002412e+00	1.000492e+00	1.000088e+00	1.000018e+00	1.000005e+00	1.000001e+00	1.000000e+00	1.000000e+00	1.000000e+00	1.000000e+00	1.000000e+00	1.000000e+00	1.000000e+00	1.000000e+00	1.000000e+00	1.000000e+00	1.000000e+00	1.000000e+00	1.000000e+00	1.000000e+00	1.000000e+00	1.000000e+00	1.000000e+00	1.000000e+00	1.000000e+00	1.000000e+00	1.000000e+00	1.000000e+00	1.000000e+00	1.000000e+00	1.000000e+00	1.000000e+00	1.000000e+00	1.000000e+00	1.000000e+00	1.000000e+00	1.000000e+00	1.000000e+00	1.000000e+00	1.000000e+00	1.000000e+00	1.033150e+00	1.032988e+00	1.029335e+00	1.024814e+00	1.018582e+00	1.011325e+00	1.003800e+00	9.965999e-01	9.915457e-01	9.894298e-01	9.893125e-01	9.930424e-01	1.000053e+00	1.006715e+00	1.009593e+00	1.010275e+00	1.010224e+00	1.008274e+00	1.003089e+00	9.955464e-01	9.893807e-01	9.866346e-01	9.858889e-01	9.857342e-01	9.857573e-01	9.858888e-01	9.861525e-01	9.865461e-01	9.871353e-01	9.879315e-01	9.889920e-01	9.903766e-01	9.921328e-01	9.942996e-01	9.969224e-01	1.000034e+00	1.003643e+00	1.007704e+00	1.011995e+00	1.015913e+00	1.018526e+00	1.019422e+00	1.019000e+00	1.017215e+00	1.015272e+00	1.012650e+00	1.007697e+00	1.001185e+00	9.968162e-01	9.956900e-01	9.973961e-01	1.004125e+00	1.013088e+00	1.020402e+00	1.023926e+00	1.024664e+00	1.024639e+00	1.023132e+00	1.018450e+00	1.010644e+00	1.003883e+00	1.000906e+00	1.000165e+00	1.000031e+00	1.000007e+00	1.000002e+00	1.000001e+00	1.000000e+00	1.000000e+00	1.000000e+00	1.000000e+00	1.000000e+00	1.000000e+00	1.000000e+00	1.000000e+00	1.000000e+00	1.000000e+00	1.000000e+00	1.000000e+00	1.000000e+00	1.000000e+00	1.000000e+00	1.000000e+00	1.000000e+00	1.000000e+00	1.000000e+00	1.000000e+00	1.000000e+00	1.000000e+00	1.000000e+00	1.000000e+00	1.000000e+00	1.000000e+00	1.000000e+00	1.000000e+00	1.000000e+00	1.000000e+00	1.000000e+00	1.000000e+00	1.000000e+00	1.000000e+00	1.041501e+00	1.041240e+00	1.036895e+00	1.030506e+00	1.022574e+00	1.013544e+00	1.004242e+00	9.963908e-01	9.914619e-01	9.893125e-01	9.899429e-01	9.947848e-01	1.001996e+00	1.008749e+00	1.012155e+00	1.012733e+00	1.012639e+00	1.011208e+00	1.007109e+00	1.000109e+00	9.930683e-01	9.893161e-01	9.883232e-01	9.882399e-01	9.884233e-01	9.887697e-01	9.893097e-01	9.901344e-01	9.911988e-01	9.925006e-01	9.940894e-01	9.960196e-01	9.983315e-01	1.001056e+00	1.004212e+00	1.007768e+00	1.011619e+00	1.015494e+00	1.018837e+00	1.020961e+00	1.021650e+00	1.021370e+00	1.019994e+00	1.017367e+00	1.013196e+00	1.006796e+00	9.991238e-01	9.933394e-01	9.910972e-01	9.911599e-01	9.947402e-01	1.002042e+00	1.010683e+00	1.018413e+00	1.022992e+00	1.024290e+00	1.024421e+00	1.023549e+00	1.020059e+00	1.013087e+00	1.005629e+00	1.001522e+00	1.000296e+00	1.000053e+00	1.000011e+00	1.000003e+00	1.000001e+00	1.000000e+00	1.000000e+00	1.000000e+00	1.000000e+00	1.000000e+00	1.000000e+00	1.000000e+00	1.000000e+00	1.000000e+00	1.000000e+00	1.000000e+00	1.000000e+00	1.000000e+00	1.000000e+00	1.000000e+00	1.000000e+00	1.000000e+00	1.000000e+00	1.000000e+00	1.000000e+00	1.000000e+00	1.000000e+00	1.000000e+00	1.000000e+00	1.000000e+00	1.000000e+00	1.000000e+00	1.000000e+00	1.000000e+00	1.000000e+00	1.000000e+00	1.000000e+00	1.000000e+00	1.000000e+00	1.045864e+00	1.044516e+00	1.039503e+00	1.031920e+00	1.023425e+00	1.014400e+00	1.005568e+00	9.985556e-01	9.946802e-01	9.930424e-01	9.947848e-01	9.997624e-01	1.005845e+00	1.012055e+00	1.016185e+00	1.016962e+00	1.016751e+00	1.015648e+00	1.012361e+00	1.006136e+00	9.987161e-01	9.939227e-01	9.926050e-01	9.926021e-01	9.929270e-01	9.934370e-01	9.942957e-01	9.955021e-01	9.969680e-01	9.986904e-01	1.000716e+00	1.003082e+00	1.005799e+00	1.008845e+00	1.012138e+00	1.015479e+00	1.018536e+00	1.020860e+00	1.022220e+00	1.022605e+00	1.022474e+00	1.021904e+00	1.019757e+00	1.014818e+00	1.006731e+00	9.979032e-01	9.915959e-01	9.887486e-01	9.881471e-01	9.892492e-01	9.935354e-01	1.000317e+00	1.008348e+00	1.016285e+00	1.021838e+00	1.023869e+00	1.024151e+00	1.023728e+00	1.021140e+00	1.015143e+00	1.007476e+00	1.002332e+00	1.000495e+00	1.000089e+00	1.000017e+00	1.000004e+00	1.000001e+00	1.000000e+00	1.000000e+00	1.000000e+00	1.000000e+00	1.000000e+00	1.000000e+00	1.000000e+00	1.000000e+00	1.000000e+00	1.000000e+00	1.000000e+00	1.000000e+00	1.000000e+00	1.000000e+00	1.000000e+00	1.000000e+00	1.000000e+00	1.000000e+00	1.000000e+00	1.000000e+00	1.000000e+00	1.000000e+00	1.000000e+00	1.000000e+00	1.000000e+00	1.000000e+00	1.000000e+00	1.000000e+00	1.000000e+00	1.000000e+00	1.000000e+00	1.000000e+00	1.000000e+00	1.000000e+00	1.046214e+00	1.044387e+00	1.039251e+00	1.030979e+00	1.022139e+00	1.013997e+00	1.007871e+00	1.003483e+00	1.000973e+00	1.000053e+00	1.001996e+00	1.005845e+00	1.010861e+00	1.016702e+00	1.021574e+00	1.022940e+00	1.022616e+00	1.021672e+00	1.018996e+00	1.013574e+00	1.006223e+00	1.000568e+00	9.987133e-01	9.987295e-01	9.991039e-01	9.997854e-01	1.000906e+00	1.002391e+00	1.004146e+00	1.006155e+00	1.008425e+00	1.010927e+00	1.013585e+00	1.016256e+00	1.018720e+00	1.020692e+00	1.022045e+00	1.022699e+00	1.022937e+00	1.022898e+00	1.022456e+00	1.020788e+00	1.016135e+00	1.007496e+00	9.976926e-01	9.908503e-01	9.878166e-01	9.869828e-01	9.870788e-01	9.887319e-01	9.927137e-01	9.986942e-01	1.006173e+00	1.014213e+00	1.020581e+00	1.023394e+00	1.023895e+00	1.023725e+00	1.021844e+00	1.016767e+00	1.009261e+00	1.003289e+00	1.000770e+00	1.000142e+00	1.000026e+00	1.000006e+00	1.000002e+00	1.000000e+00	1.000000e+00	1.000000e+00	1.000000e+00	1.000000e+00	1.000000e+00	1.000000e+00	1.000000e+00	1.000000e+00	1.000000e+00	1.000000e+00	1.000000e+00	1.000000e+00	1.000000e+00	1.000000e+00	1.000000e+00	1.000000e+00	1.000000e+00	1.000000e+00	1.000000e+00	1.000000e+00	1.000000e+00	1.000000e+00	1.000000e+00	1.000000e+00	1.000000e+00	1.000000e+00	1.000000e+00	1.000000e+00	1.000000e+00	1.000000e+00	1.000000e+00	1.000000e+00	1.000000e+00	1.040117e+00	1.038255e+00	1.033680e+00	1.025714e+00	1.018164e+00	1.012543e+00	1.008924e+00	1.007228e+00	1.006206e+00	1.006715e+00	1.008749e+00	1.012055e+00	1.016702e+00	1.022371e+00	1.027706e+00	1.029982e+00	1.029695e+00	1.028907e+00	1.026720e+00	1.022057e+00	1.015075e+00	1.008852e+00	1.006236e+00	1.006134e+00	1.006515e+00	1.007303e+00	1.008545e+00	1.010114e+00	1.011893e+00	1.013799e+00	1.015755e+00	1.017661e+00	1.019381e+00	1.020798e+00	1.021820e+00	1.022440e+00	1.022799e+00	1.023018e+00	1.022861e+00	1.022242e+00	1.020263e+00	1.015464e+00	1.007478e+00	9.984639e-01	9.915147e-01	9.880009e-01	9.868526e-01	9.866445e-01	9.869469e-01	9.885411e-01	9.919381e-01	9.972138e-01	1.004274e+00	1.012332e+00	1.019288e+00	1.022864e+00	1.023653e+00	1.023633e+00	1.022273e+00	1.017996e+00	1.010871e+00	1.004320e+00	1.001114e+00	1.000214e+00	1.000039e+00	1.000008e+00	1.000002e+00	1.000001e+00	1.000000e+00	1.000000e+00	1.000000e+00	1.000000e+00	1.000000e+00	1.000000e+00	1.000000e+00	1.000000e+00	1.000000e+00	1.000000e+00	1.000000e+00	1.000000e+00	1.000000e+00	1.000000e+00	1.000000e+00	1.000000e+00	1.000000e+00	1.000000e+00	1.000000e+00	1.000000e+00	1.000000e+00	1.000000e+00	1.000000e+00	1.000000e+00	1.000000e+00	1.000000e+00	1.000000e+00	1.000000e+00	1.000000e+00	1.000000e+00	1.000000e+00	1.000000e+00	1.000000e+00	1.024803e+00	1.023573e+00	1.022361e+00	1.018102e+00	1.014144e+00	1.011320e+00	1.009387e+00	1.008523e+00	1.008426e+00	1.009593e+00	1.012155e+00	1.016185e+00	1.021574e+00	1.027706e+00	1.033520e+00	1.036775e+00	1.036847e+00	1.036149e+00	1.034451e+00	1.030528e+00	1.024039e+00	1.017500e+00	1.014104e+00	1.013645e+00	1.013932e+00	1.014604e+00	1.015631e+00	1.016842e+00	1.018076e+00	1.019220e+00	1.020222e+00	1.021038e+00	1.021661e+00	1.022111e+00	1.022459e+00	1.022750e+00	1.022766e+00	1.022373e+00	1.021237e+00	1.018426e+00	1.013153e+00	1.005865e+00	9.987494e-01	9.933725e-01	9.897529e-01	9.875858e-01	9.868467e-01	9.867624e-01	9.870672e-01	9.883811e-01	9.912047e-01	9.959716e-01	1.002702e+00	1.010693e+00	1.018045e+00	1.022303e+00	1.023424e+00	1.023509e+00	1.022527e+00	1.018916e+00	1.012236e+00	1.005344e+00	1.001506e+00	1.000305e+00	1.000055e+00	1.000011e+00	1.000002e+00	1.000001e+00	1.000000e+00	1.000000e+00	1.000000e+00	1.000000e+00	1.000000e+00	1.000000e+00	1.000000e+00	1.000000e+00	1.000000e+00	1.000000e+00	1.000000e+00	1.000000e+00	1.000000e+00	1.000000e+00	1.000000e+00	1.000000e+00	1.000000e+00	1.000000e+00	1.000000e+00	1.000000e+00	1.000000e+00	1.000000e+00	1.000000e+00	1.000000e+00	1.000000e+00	1.000000e+00	1.000000e+00	1.000000e+00	1.000000e+00	1.000000e+00	1.000000e+00	1.000000e+00	1.000000e+00	1.007696e+00	1.006696e+00	1.009716e+00	1.010535e+00	1.010374e+00	1.009845e+00	1.009357e+00	1.008952e+00	1.009136e+00	1.010275e+00	1.012733e+00	1.016962e+00	1.022940e+00	1.029982e+00	1.036775e+00	1.041294e+00	1.042188e+00	1.041688e+00	1.040353