# vtk DataFile Version 3.0
vtk output
ASCII
DATASET STRUCTURED_GRID
DIMENSIONS 101 101 1
POINTS 10201 double
0.000000e+00	0.000000e+00	0.0	1.000000e-02	0.000000e+00	0.0	2.000000e-02	0.000000e+00	0.0	3.000000e-02	0.000000e+00	0.0	4.000000e-02	0.000000e+00	0.0	5.000000e-02	0.000000e+00	0.0	6.000000e-02	0.000000e+00	0.0	7.000000e-02	0.000000e+00	0.0	8.000000e-02	0.000000e+00	0.0	9.000000e-02	0.000000e+00	0.0	1.000000e-01	0.000000e+00	0.0	1.100000e-01	0.000000e+00	0.0	1.200000e-01	0.000000e+00	0.0	1.300000e-01	0.000000e+00	0.0	1.400000e-01	0.000000e+00	0.0	1.500000e-01	0.000000e+00	0.0	1.600000e-01	0.000000e+00	0.0	1.700000e-01	0.000000e+00	0.0	1.800000e-01	0.000000e+00	0.0	1.900000e-01	0.000000e+00	0.0	2.000000e-01	0.000000e+00	0.0	2.100000e-01	0.000000e+00	0.0	2.200000e-01	0.000000e+00	0.0	2.300000e-01	0.000000e+00	0.0	2.400000e-01	0.000000e+00	0.0	2.500000e-01	0.000000e+00	0.0	2.600000e-01	0.000000e+00	0.0	2.700000e-01	0.000000e+00	0.0	2.800000e-01	0.000000e+00	0.0	2.900000e-01	0.000000e+00	0.0	3.000000e-01	0.000000e+00	0.0	3.100000e-01	0.000000e+00	0.0	3.200000e-01	0.000000e+00	0.0	3.300000e-01	0.000000e+00	0.0	3.400000e-01	0.000000e+00	0.0	3.500000e-01	0.000000e+00	0.0	3.600000e-01	0.000000e+00	0.0	3.700000e-01	0.000000e+00	0.0	3.800000e-01	0.000000e+00	0.0	3.900000e-01	0.000000e+00	0.0	4.000000e-01	0.000000e+00	0.0	4.100000e-01	0.000000e+00	0.0	4.200000e-01	0.000000e+00	0.0	4.300000e-01	0.000000e+00	0.0	4.400000e-01	0.000000e+00	0.0	4.500000e-01	0.000000e+00	0.0	4.600000e-01	0.000000e+00	0.0	4.700000e-01	0.000000e+00	0.0	4.800000e-01	0.000000e+00	0.0	4.900000e-01	0.000000e+00	0.0	5.000000e-01	0.000000e+00	0.0	5.100000e-01	0.000000e+00	0.0	5.200000e-01	0.000000e+00	0.0	5.300000e-01	0.000000e+00	0.0	5.400000e-01	0.000000e+00	0.0	5.500000e-01	0.000000e+00	0.0	5.600000e-01	0.000000e+00	0.0	5.700000e-01	0.000000e+00	0.0	5.800000e-01	0.000000e+00	0.0	5.900000e-01	0.000000e+00	0.0	6.000000e-01	0.000000e+00	0.0	6.100000e-01	0.000000e+00	0.0	6.200000e-01	0.000000e+00	0.0	6.300000e-01	0.000000e+00	0.0	6.400000e-01	0.000000e+00	0.0	6.500000e-01	0.000000e+00	0.0	6.600000e-01	0.000000e+00	0.0	6.700000e-01	0.000000e+00	0.0	6.800000e-01	0.000000e+00	0.0	6.900000e-01	0.000000e+00	0.0	7.000000e-01	0.000000e+00	0.0	7.100000e-01	0.000000e+00	0.0	7.200000e-01	0.000000e+00	0.0	7.300000e-01	0.000000e+00	0.0	7.400000e-01	0.000000e+00	0.0	7.500000e-01	0.000000e+00	0.0	7.600000e-01	0.000000e+00	0.0	7.700000e-01	0.000000e+00	0.0	7.800000e-01	0.000000e+00	0.0	7.900000e-01	0.000000e+00	0.0	8.000000e-01	0.000000e+00	0.0	8.100000e-01	0.000000e+00	0.0	8.200000e-01	0.000000e+00	0.0	8.300000e-01	0.000000e+00	0.0	8.400000e-01	0.000000e+00	0.0	8.500000e-01	0.000000e+00	0.0	8.600000e-01	0.000000e+00	0.0	8.700000e-01	0.000000e+00	0.0	8.800000e-01	0.000000e+00	0.0	8.900000e-01	0.000000e+00	0.0	9.000000e-01	0.000000e+00	0.0	9.100000e-01	0.000000e+00	0.0	9.200000e-01	0.000000e+00	0.0	9.300000e-01	0.000000e+00	0.0	9.400000e-01	0.000000e+00	0.0	9.500000e-01	0.000000e+00	0.0	9.600000e-01	0.000000e+00	0.0	9.700000e-01	0.000000e+00	0.0	9.800000e-01	0.000000e+00	0.0	9.900000e-01	0.000000e+00	0.0	1.000000e+00	0.000000e+00	0.0	0.000000e+00	1.000000e-02	0.0	1.000000e-02	1.000000e-02	0.0	2.000000e-02	1.000000e-02	0.0	3.000000e-02	1.000000e-02	0.0	4.000000e-02	1.000000e-02	0.0	5.000000e-02	1.000000e-02	0.0	6.000000e-02	1.000000e-02	0.0	7.000000e-02	1.000000e-02	0.0	8.000000e-02	1.000000e-02	0.0	9.000000e-02	1.000000e-02	0.0	1.000000e-01	1.000000e-02	0.0	1.100000e-01	1.000000e-02	0.0	1.200000e-01	1.000000e-02	0.0	1.300000e-01	1.000000e-02	0.0	1.400000e-01	1.000000e-02	0.0	1.500000e-01	1.000000e-02	0.0	1.600000e-01	1.000000e-02	0.0	1.700000e-01	1.000000e-02	0.0	1.800000e-01	1.000000e-02	0.0	1.900000e-01	1.000000e-02	0.0	2.000000e-01	1.000000e-02	0.0	2.100000e-01	1.000000e-02	0.0	2.200000e-01	1.000000e-02	0.0	2.300000e-01	1.000000e-02	0.0	2.400000e-01	1.000000e-02	0.0	2.500000e-01	1.000000e-02	0.0	2.600000e-01	1.000000e-02	0.0	2.700000e-01	1.000000e-02	0.0	2.800000e-01	1.000000e-02	0.0	2.900000e-01	1.000000e-02	0.0	3.000000e-01	1.000000e-02	0.0	3.100000e-01	1.000000e-02	0.0	3.200000e-01	1.000000e-02	0.0	3.300000e-01	1.000000e-02	0.0	3.400000e-01	1.000000e-02	0.0	3.500000e-01	1.000000e-02	0.0	3.600000e-01	1.000000e-02	0.0	3.700000e-01	1.000000e-02	0.0	3.800000e-01	1.000000e-02	0.0	3.900000e-01	1.000000e-02	0.0	4.000000e-01	1.000000e-02	0.0	4.100000e-01	1.000000e-02	0.0	4.200000e-01	1.000000e-02	0.0	4.300000e-01	1.000000e-02	0.0	4.400000e-01	1.000000e-02	0.0	4.500000e-01	1.000000e-02	0.0	4.600000e-01	1.000000e-02	0.0	4.700000e-01	1.000000e-02	0.0	4.800000e-01	1.000000e-02	0.0	4.900000e-01	1.000000e-02	0.0	5.000000e-01	1.000000e-02	0.0	5.100000e-01	1.000000e-02	0.0	5.200000e-01	1.000000e-02	0.0	5.300000e-01	1.000000e-02	0.0	5.400000e-01	1.000000e-02	0.0	5.500000e-01	1.000000e-02	0.0	5.600000e-01	1.000000e-02	0.0	5.700000e-01	1.000000e-02	0.0	5.800000e-01	1.000000e-02	0.0	5.900000e-01	1.000000e-02	0.0	6.000000e-01	1.000000e-02	0.0	6.100000e-01	1.000000e-02	0.0	6.200000e-01	1.000000e-02	0.0	6.300000e-01	1.000000e-02	0.0	6.400000e-01	1.000000e-02	0.0	6.500000e-01	1.000000e-02	0.0	6.600000e-01	1.000000e-02	0.0	6.700000e-01	1.000000e-02	0.0	6.800000e-01	1.000000e-02	0.0	6.900000e-01	1.000000e-02	0.0	7.000000e-01	1.000000e-02	0.0	7.100000e-01	1.000000e-02	0.0	7.200000e-01	1.000000e-02	0.0	7.300000e-01	1.000000e-02	0.0	7.400000e-01	1.000000e-02	0.0	7.500000e-01	1.000000e-02	0.0	7.600000e-01	1.000000e-02	0.0	7.700000e-01	1.000000e-02	0.0	7.800000e-01	1.000000e-02	0.0	7.900000e-01	1.000000e-02	0.0	8.000000e-01	1.000000e-02	0.0	8.100000e-01	1.000000e-02	0.0	8.200000e-01	1.000000e-02	0.0	8.300000e-01	1.000000e-02	0.0	8.400000e-01	1.000000e-02	0.0	8.500000e-01	1.000000e-02	0.0	8.600000e-01	1.000000e-02	0.0	8.700000e-01	1.000000e-02	0.0	8.800000e-01	1.000000e-02	0.0	8.900000e-01	1.000000e-02	0.0	9.000000e-01	1.000000e-02	0.0	9.100000e-01	1.000000e-02	0.0	9.200000e-01	1.000000e-02	0.0	9.300000e-01	1.000000e-02	0.0	9.400000e-01	1.000000e-02	0.0	9.500000e-01	1.000000e-02	0.0	9.600000e-01	1.000000e-02	0.0	9.700000e-01	1.000000e-02	0.0	9.800000e-01	1.000000e-02	0.0	9.900000e-01	1.000000e-02	0.0	1.000000e+00	1.000000e-02	0.0	0.000000e+00	2.000000e-02	0.0	1.000000e-02	2.000000e-02	0.0	2.000000e-02	2.000000e-02	0.0	3.000000e-02	2.000000e-02	0.0	4.000000e-02	2.000000e-02	0.0	5.000000e-02	2.000000e-02	0.0	6.000000e-02	2.000000e-02	0.0	7.000000e-02	2.000000e-02	0.0	8.000000e-02	2.000000e-02	0.0	9.000000e-02	2.000000e-02	0.0	1.000000e-01	2.000000e-02	0.0	1.100000e-01	2.000000e-02	0.0	1.200000e-01	2.000000e-02	0.0	1.300000e-01	2.000000e-02	0.0	1.400000e-01	2.000000e-02	0.0	1.500000e-01	2.000000e-02	0.0	1.600000e-01	2.000000e-02	0.0	1.700000e-01	2.000000e-02	0.0	1.800000e-01	2.000000e-02	0.0	1.900000e-01	2.000000e-02	0.0	2.000000e-01	2.000000e-02	0.0	2.100000e-01	2.000000e-02	0.0	2.200000e-01	2.000000e-02	0.0	2.300000e-01	2.000000e-02	0.0	2.400000e-01	2.000000e-02	0.0	2.500000e-01	2.000000e-02	0.0	2.600000e-01	2.000000e-02	0.0	2.700000e-01	2.000000e-02	0.0	2.800000e-01	2.000000e-02	0.0	2.900000e-01	2.000000e-02	0.0	3.000000e-01	2.000000e-02	0.0	3.100000e-01	2.000000e-02	0.0	3.200000e-01	2.000000e-02	0.0	3.300000e-01	2.000000e-02	0.0	3.400000e-01	2.000000e-02	0.0	3.500000e-01	2.000000e-02	0.0	3.600000e-01	2.000000e-02	0.0	3.700000e-01	2.000000e-02	0.0	3.800000e-01	2.000000e-02	0.0	3.900000e-01	2.000000e-02	0.0	4.000000e-01	2.000000e-02	0.0	4.100000e-01	2.000000e-02	0.0	4.200000e-01	2.000000e-02	0.0	4.300000e-01	2.000000e-02	0.0	4.400000e-01	2.000000e-02	0.0	4.500000e-01	2.000000e-02	0.0	4.600000e-01	2.000000e-02	0.0	4.700000e-01	2.000000e-02	0.0	4.800000e-01	2.000000e-02	0.0	4.900000e-01	2.000000e-02	0.0	5.000000e-01	2.000000e-02	0.0	5.100000e-01	2.000000e-02	0.0	5.200000e-01	2.000000e-02	0.0	5.300000e-01	2.000000e-02	0.0	5.400000e-01	2.000000e-02	0.0	5.500000e-01	2.000000e-02	0.0	5.600000e-01	2.000000e-02	0.0	5.700000e-01	2.000000e-02	0.0	5.800000e-01	2.000000e-02	0.0	5.900000e-01	2.000000e-02	0.0	6.000000e-01	2.000000e-02	0.0	6.100000e-01	2.000000e-02	0.0	6.200000e-01	2.000000e-02	0.0	6.300000e-01	2.000000e-02	0.0	6.400000e-01	2.000000e-02	0.0	6.500000e-01	2.000000e-02	0.0	6.600000e-01	2.000000e-02	0.0	6.700000e-01	2.000000e-02	0.0	6.800000e-01	2.000000e-02	0.0	6.900000e-01	2.000000e-02	0.0	7.000000e-01	2.000000e-02	0.0	7.100000e-01	2.000000e-02	0.0	7.200000e-01	2.000000e-02	0.0	7.300000e-01	2.000000e-02	0.0	7.400000e-01	2.000000e-02	0.0	7.500000e-01	2.000000e-02	0.0	7.600000e-01	2.000000e-02	0.0	7.700000e-01	2.000000e-02	0.0	7.800000e-01	2.000000e-02	0.0	7.900000e-01	2.000000e-02	0.0	8.000000e-01	2.000000e-02	0.0	8.100000e-01	2.000000e-02	0.0	8.200000e-01	2.000000e-02	0.0	8.300000e-01	2.000000e-02	0.0	8.400000e-01	2.000000e-02	0.0	8.500000e-01	2.000000e-02	0.0	8.600000e-01	2.000000e-02	0.0	8.700000e-01	2.000000e-02	0.0	8.800000e-01	2.000000e-02	0.0	8.900000e-01	2.000000e-02	0.0	9.000000e-01	2.000000e-02	0.0	9.100000e-01	2.000000e-02	0.0	9.200000e-01	2.000000e-02	0.0	9.300000e-01	2.000000e-02	0.0	9.400000e-01	2.000000e-02	0.0	9.500000e-01	2.000000e-02	0.0	9.600000e-01	2.000000e-02	0.0	9.700000e-01	2.000000e-02	0.0	9.800000e-01	2.000000e-02	0.0	9.900000e-01	2.000000e-02	0.0	1.000000e+00	2.000000e-02	0.0	0.000000e+00	3.000000e-02	0.0	1.000000e-02	3.000000e-02	0.0	2.000000e-02	3.000000e-02	0.0	3.000000e-02	3.000000e-02	0.0	4.000000e-02	3.000000e-02	0.0	5.000000e-02	3.000000e-02	0.0	6.000000e-02	3.000000e-02	0.0	7.000000e-02	3.000000e-02	0.0	8.000000e-02	3.000000e-02	0.0	9.000000e-02	3.000000e-02	0.0	1.000000e-01	3.000000e-02	0.0	1.100000e-01	3.000000e-02	0.0	1.200000e-01	3.000000e-02	0.0	1.300000e-01	3.000000e-02	0.0	1.400000e-01	3.000000e-02	0.0	1.500000e-01	3.000000e-02	0.0	1.600000e-01	3.000000e-02	0.0	1.700000e-01	3.000000e-02	0.0	1.800000e-01	3.000000e-02	0.0	1.900000e-01	3.000000e-02	0.0	2.000000e-01	3.000000e-02	0.0	2.100000e-01	3.000000e-02	0.0	2.200000e-01	3.000000e-02	0.0	2.300000e-01	3.000000e-02	0.0	2.400000e-01	3.000000e-02	0.0	2.500000e-01	3.000000e-02	0.0	2.600000e-01	3.000000
[...]
POINT_DATA 10201

SCALARS Height double 1
LOOKUP_TABLE default
9.991162e-01	9.991220e-01	9.991225e-01	9.991193e-01	9.991195e-01	9.991220e-01	9.991246e-01	9.991264e-01	9.991280e-01	9.991299e-01	9.991316e-01	9.991312e-01	9.991268e-01	9.991194e-01	9.991108e-01	9.991020e-01	9.990949e-01	9.990911e-01	9.990904e-01	9.990905e-01	9.990895e-01	9.990810e-01	9.990684e-01	9.990577e-01	9.990506e-01	9.990430e-01	9.990364e-01	9.990299e-01	9.990239e-01	9.990172e-01	9.990080e-01	9.989953e-01	9.989788e-01	9.989589e-01	9.989387e-01	9.989197e-01	9.989013e-01	9.988827e-01	9.988647e-01	9.988468e-01	9.988283e-01	9.988091e-01	9.987886e-01	9.987669e-01	9.987436e-01	9.987184e-01	9.986912e-01	9.986618e-01	9.986303e-01	9.985967e-01	9.985608e-01	9.985221e-01	9.984797e-01	9.984329e-01	9.983807e-01	9.983233e-01	9.982639e-01	9.982067e-01	9.981544e-01	9.981310e-01	9.981834e-01	9.984817e-01	9.994921e-01	1.002015e+00	1.006525e+00	1.011899e+00	1.016126e+00	1.017991e+00	1.018161e+00	1.017534e+00	1.015826e+00	1.012812e+00	1.008395e+00	1.002956e+00	9.970758e-01	9.913642e-01	9.863265e-01	9.824626e-01	9.800275e-01	9.788736e-01	9.786222e-01	9.789817e-01	9.803123e-01	9.829519e-01	9.869875e-01	9.921092e-01	9.978032e-01	1.003567e+00	1.008795e+00	1.012935e+00	1.015694e+00	1.017226e+00	1.017760e+00	1.017478e+00	1.015353e+00	1.010822e+00	1.005224e+00	1.000606e+00	9.980353e-01	9.970366e-01	9.967527e-01	9.991536e-01	9.991757e-01	9.991724e-01	9.991697e-01	9.991670e-01	9.991626e-01	9.991571e-01	9.991506e-01	9.991447e-01	9.991406e-01	9.991374e-01	9.991337e-01	9.991281e-01	9.991200e-01	9.991106e-01	9.991025e-01	9.990961e-01	9.991021e-01	9.991088e-01	9.991124e-01	9.991119e-01	9.991037e-01	9.990861e-01	9.990691e-01	9.990520e-01	9.990433e-01	9.990355e-01	9.990301e-01	9.990249e-01	9.990184e-01	9.990091e-01	9.989965e-01	9.989809e-01	9.989640e-01	9.989468e-01	9.989308e-01	9.989158e-01	9.989018e-01	9.988880e-01	9.988736e-01	9.988579e-01	9.988406e-01	9.988213e-01	9.988002e-01	9.987773e-01	9.987524e-01	9.987253e-01	9.986959e-01	9.986642e-01	9.986302e-01	9.985937e-01	9.985544e-01	9.985116e-01	9.984643e-01	9.984108e-01	9.983510e-01	9.982885e-01	9.982280e-01	9.981672e-01	9.981109e-01	9.981109e-01	9.983381e-01	9.992787e-01	1.001910e+00	1.006795e+00	1.012477e+00	1.016470e+00	1.018098e+00	1.018237e+00	1.017819e+00	1.016275e+00	1.013051e+00	1.008445e+00	1.002938e+00	9.970656e-01	9.913212e-01	9.862357e-01	9.823230e-01	9.799143e-01	9.789000e-01	9.786622e-01	9.789928e-01	9.801813e-01	9.828139e-01	9.869036e-01	9.920755e-01	9.978015e-01	1.003562e+00	1.008867e+00	1.013204e+00	1.016139e+00	1.017469e+00	1.017832e+00	1.017598e+00	1.015733e+00	1.011411e+00	1.005470e+00	1.000483e+00	9.978078e-01	9.968818e-01	9.966176e-01	9.991427e-01	9.991494e-01	9.991498e-01	9.991474e-01	9.991465e-01	9.991453e-01	9.991444e-01	9.991419e-01	9.991409e-01	9.991400e-01	9.991372e-01	9.991323e-01	9.991254e-01	9.991169e-01	9.991081e-01	9.991008e-01	9.990945e-01	9.990949e-01	9.990902e-01	9.990847e-01	9.990802e-01	9.990758e-01	9.990714e-01	9.990619e-01	9.990504e-01	9.990397e-01	9.990314e-01	9.990253e-01	9.990206e-01	9.990152e-01	9.990074e-01	9.989964e-01	9.989821e-01	9.989652e-01	9.989462e-01	9.989270e-01	9.989092e-01	9.988926e-01	9.988766e-01	9.988605e-01	9.988435e-01	9.988252e-01	9.988051e-01	9.987833e-01	9.987596e-01	9.987342e-01	9.987068e-01	9.986771e-01	9.986453e-01	9.986110e-01	9.985743e-01	9.985349e-01	9.984923e-01	9.984455e-01	9.983927e-01	9.983332e-01	9.982710e-01	9.982104e-01	9.981488e-01	9.980924e-01	9.980857e-01	9.982899e-01	9.992411e-01	1.001993e+00	1.006982e+00	1.012483e+00	1.016231e+00	1.017765e+00	1.017937e+00	1.017595e+00	1.016182e+00	1.012905e+00	1.008249e+00	1.002833e+00	9.970676e-01	9.914006e-01	9.863682e-01	9.824745e-01	9.801046e-01	9.790771e-01	9.788106e-01	9.791703e-01	9.803523e-01	9.829514e-01	9.870285e-01	9.921493e-01	9.977987e-01	1.003447e+00	1.008672e+00	1.013074e+00	1.016042e+00	1.017227e+00	1.017525e+00	1.017255e+00	1.015496e+00	1.011425e+00	1.005659e+00	1.000563e+00	9.977620e-01	9.968230e-01	9.965678e-01	9.991446e-01	9.991516e-01	9.991543e-01	9.991511e-01	9.991497e-01	9.991478e-01	9.991458e-01	9.991439e-01	9.991412e-01	9.991393e-01	9.991366e-01	9.991331e-01	9.991279e-01	9.991212e-01	9.991133e-01	9.991060e-01	9.990983e-01	9.991002e-01	9.990988e-01	9.990974e-01	9.990948e-01	9.990873e-01	9.990799e-01	9.990651e-01	9.990533e-01	9.990449e-01	9.990380e-01	9.990323e-01	9.990268e-01	9.990202e-01	9.990112e-01	9.989991e-01	9.989839e-01	9.989659e-01	9.989466e-01	9.989272e-01	9.989092e-01	9.988930e-01	9.988779e-01	9.988627e-01	9.988465e-01	9.988286e-01	9.988087e-01	9.987867e-01	9.987628e-01	9.987373e-01	9.987099e-01	9.986805e-01	9.986489e-01	9.986148e-01	9.985780e-01	9.985383e-01	9.984956e-01	9.984489e-01	9.983964e-01	9.983366e-01	9.982735e-01	9.982118e-01	9.981490e-01	9.980895e-01	9.980701e-01	9.982518e-01	9.991950e-01	1.002006e+00	1.007053e+00	1.012509e+00	1.016166e+00	1.017641e+00	1.017800e+00	1.017463e+00	1.016186e+00	1.012995e+00	1.008263e+00	1.002820e+00	9.971032e-01	9.914945e-01	9.864917e-01	9.826247e-01	9.803229e-01	9.793048e-01	9.790243e-01	9.793930e-01	9.805463e-01	9.830806e-01	9.871395e-01	9.922348e-01	9.978310e-01	1.003440e+00	1.008700e+00	1.013162e+00	1.016025e+00	1.017089e+00	1.017384e+00	1.017128e+00	1.015429e+00	1.011446e+00	1.005730e+00	1.000581e+00	9.977201e-01	9.967821e-01	9.965363e-01	9.991448e-01	9.991510e-01	9.991553e-01	9.991525e-01	9.991507e-01	9.991487e-01	9.991463e-01	9.991428e-01	9.991401e-01	9.991375e-01	9.991349e-01	9.991319e-01	9.991274e-01	9.991215e-01	9.991144e-01	9.991071e-01	9.990988e-01	9.990996e-01	9.990982e-01	9.990970e-01	9.990945e-01	9.990864e-01	9.990783e-01	9.990637e-01	9.990525e-01	9.990446e-01	9.990387e-01	9.990332e-01	9.990276e-01	9.990205e-01	9.990108e-01	9.989981e-01	9.989823e-01	9.989639e-01	9.989444e-01	9.989252e-01	9.989074e-01	9.988913e-01	9.988761e-01	9.988611e-01	9.988453e-01	9.988278e-01	9.988080e-01	9.987859e-01	9.987619e-01	9.987361e-01	9.987087e-01	9.986793e-01	9.986477e-01	9.986135e-01	9.985766e-01	9.985368e-01	9.984940e-01	9.984474e-01	9.983948e-01	9.983346e-01	9.982708e-01	9.982085e-01	9.981450e-01	9.980855e-01	9.980635e-01	9.982372e-01	9.991743e-01	1.002000e+00	1.007064e+00	1.012451e+00	1.016013e+00	1.017444e+00	1.017595e+00	1.017262e+00	1.016093e+00	1.013051e+00	1.008319e+00	1.002835e+00	9.971510e-01	9.916049e-01	9.866399e-01	9.828264e-01	9.805876e-01	9.795588e-01	9.792732e-01	9.796500e-01	9.807993e-01	9.832575e-01	9.872709e-01	9.923326e-01	9.978732e-01	1.003462e+00	1.008765e+00	1.013206e+00	1.015906e+00	1.016883e+00	1.017175e+00	1.016925e+00	1.015267e+00	1.011383e+00	1.005742e+00	1.000590e+00	9.977123e-01	9.967677e-01	9.965189e-01	9.991437e-01	9.991501e-01	9.991532e-01	9.991511e-01	9.991492e-01	9.991472e-01	9.991449e-01	9.991409e-01	9.991378e-01	9.991349e-01	9.991321e-01	9.991290e-01	9.991249e-01	9.991196e-01	9.991132e-01	9.991064e-01	9.990987e-01	9.990987e-01	9.990969e-01	9.990953e-01	9.990924e-01	9.990843e-01	9.990751e-01	9.990619e-01	9.990508e-01	9.990434e-01	9.990373e-01	9.990321e-01	9.990265e-01	9.990192e-01	9.990093e-01	9.989966e-01	9.989807e-01	9.989625e-01	9.989430e-01	9.989239e-01	9.989059e-01	9.988892e-01	9.988737e-01	9.988585e-01	9.988426e-01	9.988250e-01	9.988052e-01	9.987831e-01	9.987589e-01	9.987330e-01	9.987053e-01	9.986757e-01	9.986438e-01	9.986094e-01	9.985723e-01	9.985324e-01	9.984896e-01	9.984428e-01	9.983898e-01	9.983292e-01	9.982649e-01	9.982025e-01	9.981389e-01	9.980789e-01	9.980581e-01	9.982366e-01	9.991802e-01	1.001992e+00	1.006998e+00	1.012299e+00	1.015783e+00	1.017180e+00	1.017329e+00	1.017005e+00	1.015942e+00	1.013078e+00	1.008417e+00	1.002900e+00	9.972132e-01	9.917118e-01	9.867981e-01	9.830596e-01	9.808591e-01	9.798080e-01	9.795160e-01	9.799027e-01	9.810706e-01	9.834738e-01	9.874124e-01	9.924266e-01	9.979304e-01	1.003532e+00	1.008865e+00	1.013215e+00	1.015736e+00	1.016618e+00	1.016906e+00	1.016653e+00	1.015024e+00	1.011220e+00	1.005677e+00	1.000600e+00	9.977359e-01	9.967709e-01	9.965112e-01	9.991431e-01	9.991481e-01	9.991499e-01	9.991486e-01	9.991468e-01	9.991448e-01	9.991427e-01	9.991392e-01	9.991357e-01	9.991329e-01	9.991298e-01	9.991267e-01	9.991227e-01	9.991177e-01	9.991116e-01	9.991052e-01	9.990981e-01	9.990969e-01	9.990951e-01	9.990929e-01	9.990891e-01	9.990809e-01	9.990708e-01	9.990585e-01	9.990473e-01	9.990403e-01	9.990341e-01	9.990289e-01	9.990234e-01	9.990163e-01	9.990068e-01	9.989940e-01	9.989784e-01	9.989601e-01	9.989408e-01	9.989217e-01	9.989035e-01	9.988866e-01	9.988708e-01	9.988553e-01	9.988392e-01	9.988216e-01	9.988020e-01	9.987801e-01	9.987561e-01	9.987302e-01	9.987023e-01	9.986724e-01	9.986402e-01	9.986054e-01	9.985681e-01	9.985281e-01	9.984850e-01	9.984379e-01	9.983843e-01	9.983230e-01	9.982585e-01	9.981959e-01	9.981319e-01	9.980710e-01	9.980541e-01	9.982474e-01	9.992111e-01	1.001997e+00	1.006885e+00	1.012061e+00	1.015484e+00	1.016866e+00	1.017019e+00	1.016700e+00	1.015733e+00	1.013063e+00	1.008540e+00	1.003027e+00	9.973097e-01	9.918337e-01	9.869973e-01	9.833585e-01	9.811821e-01	9.800929e-01	9.797875e-01	9.801928e-01	9.813985e-01	9.837597e-01	9.875916e-01	9.925327e-01	9.980184e-01	1.003657e+00	1.008983e+00	1.013179e+00	1.015505e+00	1.016311e+00	1.016593e+00	1.016331e+00	1.014709e+00	1.010967e+00	1.005566e+00	1.000626e+00	9.977873e-01	9.967895e-01	9.965107e-01	9.991382e-01	9.991453e-01	9.991451e-01	9.991447e-01	9.991429e-01	9.991408e-01	9.991387e-01	9.991363e-01	9.991334e-01	9.991310e-01	9.991284e-01	9.991254e-01	9.991218e-01	9.991169e-01	9.991110e-01	9.991048e-01	9.990994e-01	9.990955e-01	9.990953e-01	9.990914e-01	9.990866e-01	9.990782e-01	9.990666e-01	9.990553e-01	9.990449e-01	9.990375e-01	9.990312e-01	9.990257e-01	9.990201e-01	9.990132e-01	9.990036e-01	9.989907e-01	9.989745e-01	9.989564e-01	9.989371e-01	9.989181e-01	9.989000e-01	9.988831e-01	9.988671e-01	9.988513e-01	9.988349e-01	9.988171e-01	9.987975e-01	9.987759e-01	9.987522e-01	9.987264e-01	9.986984e-01	9.986682e-01	9.986357e-01	9.986008e-01	9.985634e-01	9.985234e-01	9.984804e-01	9.984330e-01	9.983790e-01	9.983173e-01	9.982531e-01	9.981895e-01	9.981240e-01	9.980646e-01	9.980546e-01	9.982687e-01	9.992612e-01	1.002013e+00	1.006745e+00	1.011762e+00	1.015127e+00	1.016513e+00	1.016677e+00	1.016361e+00	1.015465e+00	1.013001e+00	1.008669e+00	1.003199e+00	9.974499e-01	9.919856e-01	9.872601e-01	9.837452e-01	9.815849e-01	9.804423e-01	9.801161e-01	9.805495e-01	9.818072e-01	9.841314e-01	9.878289e-01	9.926660e-01	9.981501e-01	1.003824e+00	1.009093e+00	1.013092e+00	1.015227e+00	1.015971e+00	1.016247e+00	1.015967e+00	1.014332e+00	1.010651e+00	1.005433e+00	1.000666e+00	9.978600e-01	9.968219e-01	9.965175e-01	9.991341e-01	9.991437e-01	9.991410e-01	9.991409e-01	9.991393e-01	9.991369e-01	9.991348e-01	9.991328e-01	9.991306e-01	9.991289e-01	9.991271e-01	9.991245e-01	9.991206e-01	9.991158e-01	9.991099e-01	9.991039e-01	9.990989e-01	9.990954e-01	9.990927e-01	9.990904e-01	9.990843e-01	9.990744e-01	9.990639e-01	9.990517e-01	9.990438e-01	9.990358e-01	9.990294e-01	9.990236e-01	9.990178e-01	9.990106e-01	9.990006e-01	9.989872e-01	9.989710e-01	9.989527e-01	9.989332e-01	9.989143e-01	9.988963e-01	9.988794e-01	9.988633e-01	9.988471e-01	9.988304e-01	9.988123e-01	9.987926e-01	9.987710e-01	9.987473e-01	9.987213e-01	9.986931e-01	9.986625e-01	9.986297e-01	9.985946e-01	9.985572e-01	9.985171e-01	9.984739e-01	9.984264e-01	9.983720e-01	9.983103e-01	9.982464e-01	9.981814e-01	9.981152e-01	9.980590e-01	9.980595e-01	9.983002e-01	9.993281e-01	1.002036e+00	1.006581e+00	1.011410e+00	1.014715e+00	1.016118e+00	1.016300e+00	1.015986e+00	1.015156e+00	1.012892e+00	1.008774e+00	1.003389e+00	9.976230e-01	9.921847e-01	9.875950e-01	9.842182e-01	9.820674e-01	9.808649e-01	9.805148e-01	9.809789e-01	9.822938e-01	9.845852e-01	9.881346e-01	9.928463e-01	9.983163e-01	1.004003e+00	1.009174e+00	1.012959e+00	1.014907e+00	1.015597e+00	1.015867e+00	1.015556e+00	1.013895e+00	1.010284e+00	1.005276e+00	1.000710e+00	9.979475e-01	9.968676e-01	9.965326e-01	9.991329e-01	9.991417e-01	9.991376e-01	9.991379e-01	9.991358e-01	9.991332e-01	9.991307e-01	9.991294e-01	9.991281e-01	9.991266e-01	9.991251e-01	9.991231e-01	9.991196e-01	9.991140e-01	9.991078e-01	9.991017e-01	9.990969e-01	9.990938e-01	9.990906e-01	9.990866e-01	9.990805e-01	9.990712e-01	9.990603e-01	9.990522e-01	9.990422e-01	9.990352e-01	9.990287e-01	9.990227e-01	9.990163e-01	9.990083e-01	9.989976e-01	9.989837e-01	9.989670e-01	9.989485e-01	9.989292e-01	9.989103e-01	9.988923e-01	9.988753e-01	9.988589e-01	9.988425e-01	9.988256e-01	9.988074e-01	9.987877e-01	9.987660e-01	9.987420e-01	9.987158e-01	9.986873e-01	9.986564e-01	9.986232e-01	9.985879e-01	9.985502e-01	9.985099e-01	9.984663e-01	9.984180e-01	9.983629e-01	9.983011e-01	9.982371e-01	9.981713e-01	9.981045e-01	9.980521e-01	9.980669e-01	9.983420e-01	9.994073e-01	1.002062e+00	1.006396e+00	1.011013e+00	1.014247e+00	1.015673e+00	1.015882e+00	1.015571e+00	1.014806e+00	1.012734e+00	1.008837e+00	1.003565e+00	9.978221e-01	9.924466e-01	9.880105e-01	9.847721e-01	9.826176e-01	9.813525e-01	9.809774e-01	9.814706e-01	9.828463e-01	9.851181e-01	9.885176e-01	9.930872e-01	9.985073e-01	1.004168e+00	1.009209e+00	1.012770e+00	1.014541e+00	1.015182e+00	1.015446e+00	1.015094e+00	1.013402e+00	1.009871e+00	1.005097e+00	1.000755e+00	9.980478e-01	9.969268e-01	9.965575e-01	9.991300e-01	9.991397e-01	9.991339e-01	9.991346e-01	9.991321e-01	9.991292e-01	9.991268e-01	9.991258e-01	9.991257e-01	9.991245e-01	9.991227e-01	9.991205e-01	9.991168e-01	9.991116e-01	9.991049e-01	9.990986e-01	9.990936e-01	9.990903e-01	9.990870e-01	9.990816e-01	9.990747e-01	9.990664e-01	9.990585e-01	9.990487e-01	9.990410e-01	9.990343e-01	9.990280e-01	9.990217e-01	9.990146e-01	9.990056e-01	9.989940e-01	9.989795e-01	9.989626e-01	9.989444e-01	9.989253e-01	9.989065e-01	9.988883e-01	9.988709e-01	9.988540e-01	9.988373e-01	9.988201e-01	9.988019e-01	9.987821e-01	9.987602e-01	9.987361e-01	9.987096e-01	9.986808e-01	9.986497e-01	9.986164e-01	9.985810e-01	9.985432e-01	9.985027e-01	9.984585e-01	9.984093e-01	9.983529e-01	9.982903e-01	9.982259e-01	9.981594e-01	9.980920e-01	9.980436e-01	9.980759e-01	9.983914e-01	9.994984e-01	1.002089e+00	1.006194e+00	1.010576e+00	1.013726e+00	1.015178e+00	1.015420e+00	1.015112e+00	1.014404e+00	1.012517e+00	1.008845e+00	1.003716e+00	9.980425e-01	9.927822e-01	9.885208e-01	9.854071e-01	9.832298e-01	9.819044e-01	9.814981e-01	9.820234e-01	9.834596e-01	9.857326e-01	9.889912e-01	9.933954e-01	9.987151e-01	1.004302e+00	1.009185e+00	1.012519e+00	1.014124e+00	1.014724e+00	1.014978e+00	1.014582e+00	1.012859e+00	1.009423e+00	1.004902e+00	1.000800e+00	9.981577e-01	9.969973e-01	9.965929e-01	9.991265e-01	9.991366e-01	9.991296e-01	9.991309e-01	9.991282e-01	9.991252e-01	9.991230e-01	9.991223e-01	9.991226e-01	9.991228e-01	9.991204e-01	9.991179e-01	9.991140e-01	9.991084e-01	9.991023e-01	9.990961e-01	9.990913e-01	9.990876e-01	9.990831e-01	9.990777e-01	9.990708e-01	9.990629e-01	9.990550e-01	9.990471e-01	9.990399e-01	9.990335e-01	9.990269e-01	9.990200e-01	9.990121e-01	9.990014e-01	9.989890e-01	9.989741e-01	9.989573e-01	9.989398e-01	9.989211e-01	9.989026e-01	9.988843e-01	9.988663e-01	9.988488e-01	9.988315e-01	9.988140e-01	9.987956e-01	9.987757e-01	9.987536e-01	9.987292e-01	9.987024e-01	9.986734e-01	9.986422e-01	9.986089e-01	9.985734e-01	9.985357e-01	9.984949e-01	9.984502e-01	9.983999e-01	9.983422e-01	9.982785e-01	9.982134e-01	9.981460e-01	9.980785e-01	9.980347e-01	9.980868e-01	9.984488e-01	9.995995e-01	1.002117e+00	1.005979e+00	1.010108e+00	1.013160e+00	1.014635e+00	1.014912e+00	1.014606e+00	1.013942e+00	1.012231e+00	1.008789e+00	1.003830e+00	9.982861e-01	9.932003e-01	9.891320e-01	9.861180e-01	9.839126e-01	9.825252e-01	9.820860e-01	9.826459e-01	9.841368e-01	9.864278e-01	9.895635e-01	9.937762e-01	9.989378e-01	1.004396e+00	1.009096e+00	1.012194e+00	1.013648e+00	1.014225e+00	1.014467e+00	1.014020e+00	1.012272e+00	1.008947e+00	1.004696e+00	1.000844e+00	9.982749e-01	9.970782e-01	9.966379e-01	9.991218e-01	9.991320e-01	9.991243e-01	9.991266e-01	9.991239e-01	9.991212e-01	9.991192e-01	9.991190e-01	9.991193e-01	9.991201e-01	9.991175e-01	9.991145e-01	9.991102e-01	9.991048e-01	9.990989e-01	9.990935e-01	9.990884e-01	9.990841e-01	9.990790e-01	9.990732e-01	9.990661e-01	9.990591e-01	9.990520e-01	9.990451e-01	9.990387e-01	9.990323e-01	9.990257e-01	9.990176e-01	9.990074e-01	9.989959e-01	9.989824e-01	9.989672e-01	9.989509e-01	9.989337e-01	9.989160e-01	9.988980e-01	9.988798e-01	9.988616e-01	9.988436e-01	9.988258e-01	9.988078e-01	9.987891e-01	9.987689e-01	9.987466e-01	9.987220e-01	9.986950e-01	9.986657e-01	9.986342e-01	9.986006e-01	9.985650e-01	9.985269e-01	9.984857e-01	9.984403e-01	9.983891e-01	9.983300e-01	9.982653e-01	9.981995e-01	9.981311e-01	9.980643e-01	9.980263e-01	9.980999e-01	9.985119e-01	9.997077e-01	1.002150e+00	1.005759e+00	1.009619e+00	1.012557e+00	1.014045e+00	1.014359e+00	1.014055e+00	1.013414e+00	1.011858e+00	1.008656e+00	1.003907e+00	9.985577e-01	9.937058e-01	9.898383e-01	9.868987e-01	9.846683e-01	9.832291e-01	9.827617e-01	9.833474e-01	9.848846e-01	9.871940e-01	9.902328e-01	9.942350e-01	9.991765e-01	1.004443e+00	1.008918e+00	1.011784e+00	1.013114e+00	1.013680e+00	1.013910e+00	1.013413e+00	1.011648e+00	1.008452e+00	1.004486e+00	1.000888e+00	9.983967e-01	9.971651e-01	9.966899e-01	9.991166e-01	9.991265e-01	9.991184e-01	9.991219e-01	9.991197e-01	9.991175e-01	9.991158e-01	9.991158e-01	9.991160e-01	9.991160e-01	9.991139e-01	9.991101e-01	9.991056e-01	9.991005e-01	9.990953e-01	9.990906e-01	9.990856e-01	9.990806e-01	9.990744e-01	9.990677e-01	9.990605e-01	9.990549e-01	9.990494e-01	9.990439e-01	9.990377e-01	9.990318e-01	9.990233e-01	9.990132e-01	9.990018e-01	9.989887e-01	9.989746e-01	9.989591e-01	9.989429e-01	9.989265e-01	9.989096e-01	9.988922e-01	9.988743e-01	9.988561e-01	9.988379e-01	9.988198e-01	9.988015e-01	9.987825e-01	9.987622e-01	9.987398e-01	9.987151e-01	9.986879e-01	9.986583e-01	9.986264e-01	9.985923e-01	9.985558e-01	9.985169e-01	9.984748e-01	9.984285e-01	9.983761e-01	9.983157e-01	9.982500e-01	9.981835e-01	9.981148e-01	9.980488e-01	9.980175e-01	9.981148e-01	9.985791e-01	9.998199e-01	1.002185e+00	1.005541e+00	1.009118e+00	1.011922e+00	1.013413e+00	1.013760e+00	1.013456e+00	1.012818e+00	1.011388e+00	1.008427e+00	1.003937e+00	9.988657e-01	9.943014e-01	9.906294e-01	9.877429e-01	9.854976e-01	9.840294e-01	9.835448e-01	9.841412e-01	9.857024e-01	9.880231e-01	9.909904e-01	9.947786e-01	9.994357e-01	1.004435e+00	1.008644e+00	1.011283e+00	1.012515e+00	1.013092e+00	1.013304e+00	1.012762e+00	1.010994e+00	1.007949e+00	1.004278e+00	1.000933e+00	9.985203e-01	9.972541e-01	9.967453e-01	9.991116e-01	9.991210e-01	9.991128e-01	9.991171e-01	9.991153e-01	9.991141e-01	9.991129e-01	9.991129e-01	9.991126e-01	9.991111e-01	9.991086e-01	9.991045e-01	9.991002e-01	9.990957e-01	9.990911e-01	9.990869e-01	9.990827e-01	9.990766e-01	9.990697e-01	9.990623e-01	9.990551e-01	9.990505e-01	9.990466e-01	9.990416e-01	9.990367e-01	9.990285e-01	9.990190e-01	9.990077e-01	9.989959e-01	9.989815e-01	9.989662e-01	9.989506e-01	9.989347e-01	9.989189e-01	9.989024e-01	9.988854e-01	9.988678e-01	9.988497e-01	9.988315e-01	9.988132e-01	9.987947e-01	9.987755e-01	9.987551e-01	9.987329e-01	9.987083e-01	9.986811e-01	9.986512e-01	9.986188e-01	9.985838e-01	9.985463e-01	9.985061e-01	9.984627e-01	9.984151e-01	9.983614e-01	9.982995e-01	9.982326e-01	9.981658e-01	9.980972e-01	9.980318e-01	9.980075e-01	9.981302e-01	9.986482e-01	9.999326e-01	1.002222e+00	1.005330e+00	1.008617e+00	1.011262e+00	1.012739e+00	1.013113e+00	1.012809e+00	1.012153e+00	1.010812e+00	1.008084e+00	1.003919e+00	9.992240e-01	9.949869e-01	9.914941e-01	9.886449e-01	9.864028e-01	9.849353e-01	9.844515e-01	9.850375e-01	9.865926e-01	9.889066e-01	9.918231e-01	9.954113e-01	9.997275e-01	1.004362e+00	1.008255e+00	1.010684e+00	1.011852e+00	1.012452e+00	1.012652e+00	1.012072e+00	1.010319e+00	1.007450e+00	1.004078e+00	1.000978e+00	9.986419e-01	9.973412e-01	9.968004e-01	9.991081e-01	9.991165e-01	9.991077e-01	9.991118e-01	9.991110e-01	9.991108e-01	9.991103e-01	9.991099e-01	9.991085e-01	9.991057e-01	9.991017e-01	9.990980e-01	9.990942e-01	9.990906e-01	9.990868e-01	9.990814e-01	9.990777e-01	9.990720e-01	9.990644