# vtk DataFile Version 3.0
vtk output
ASCII
DATASET STRUCTURED_GRID
DIMENSIONS 101 101 1
POINTS 10201 double
0.000000e+00	0.000000e+00	0.0	1.000000e-02	0.000000e+00	0.0	2.000000e-02	0.000000e+00	0.0	3.000000e-02	0.000000e+00	0.0	4.000000e-02	0.000000e+00	0.0	5.000000e-02	0.000000e+00	0.0	6.000000e-02	0.000000e+00	0.0	7.000000e-02	0.000000e+00	0.0	8.000000e-02	0.000000e+00	0.0	9.000000e-02	0.000000e+00	0.0	1.000000e-01	0.000000e+00	0.0	1.100000e-01	0.000000e+00	0.0	1.200000e-01	0.000000e+00	0.0	1.300000e-01	0.000000e+00	0.0	1.400000e-01	0.000000e+00	0.0	1.500000e-01	0.000000e+00	0.0	1.600000e-01	0.000000e+00	0.0	1.700000e-01	0.000000e+00	0.0	1.800000e-01	0.000000e+00	0.0	1.900000e-01	0.000000e+00	0.0	2.000000e-01	0.000000e+00	0.0	2.100000e-01	0.000000e+00	0.0	2.200000e-01	0.000000e+00	0.0	2.300000e-01	0.000000e+00	0.0	2.400000e-01	0.000000e+00	0.0	2.500000e-01	0.000000e+00	0.0	2.600000e-01	0.000000e+00	0.0	2.700000e-01	0.000000e+00	0.0	2.800000e-01	0.000000e+00	0.0	2.900000e-01	0.000000e+00	0.0	3.000000e-01	0.000000e+00	0.0	3.100000e-01	0.000000e+00	0.0	3.200000e-01	0.000000e+00	0.0	3.300000e-01	0.000000e+00	0.0	3.400000e-01	0.000000e+00	0.0	3.500000e-01	0.000000e+00	0.0	3.600000e-01	0.000000e+00	0.0	3.700000e-01	0.000000e+00	0.0	3.800000e-01	0.000000e+00	0.0	3.900000e-01	0.000000e+00	0.0	4.000000e-01	0.000000e+00	0.0	4.100000e-01	0.000000e+00	0.0	4.200000e-01	0.000000e+00	0.0	4.300000e-01	0.000000e+00	0.0	4.400000e-01	0.000000e+00	0.0	4.500000e-01	0.000000e+00	0.0	4.600000e-01	0.000000e+00	0.0	4.700000e-01	0.000000e+00	0.0	4.800000e-01	0.000000e+00	0.0	4.900000e-01	0.000000e+00	0.0	5.000000e-01	0.000000e+00	0.0	5.100000e-01	0.000000e+00	0.0	5.200000e-01	0.000000e+00	0.0	5.300000e-01	0.000000e+00	0.0	5.400000e-01	0.000000e+00	0.0	5.500000e-01	0.000000e+00	0.0	5.600000e-01	0.000000e+00	0.0	5.700000e-01	0.000000e+00	0.0	5.800000e-01	0.000000e+00	0.0	5.900000e-01	0.000000e+00	0.0	6.000000e-01	0.000000e+00	0.0	6.100000e-01	0.000000e+00	0.0	6.200000e-01	0.000000e+00	0.0	6.300000e-01	0.000000e+00	0.0	6.400000e-01	0.000000e+00	0.0	6.500000e-01	0.000000e+00	0.0	6.600000e-01	0.000000e+00	0.0	6.700000e-01	0.000000e+00	0.0	6.800000e-01	0.000000e+00	0.0	6.900000e-01	0.000000e+00	0.0	7.000000e-01	0.000000e+00	0.0	7.100000e-01	0.000000e+00	0.0	7.200000e-01	0.000000e+00	0.0	7.300000e-01	0.000000e+00	0.0	7.400000e-01	0.000000e+00	0.0	7.500000e-01	0.000000e+00	0.0	7.600000e-01	0.000000e+00	0.0	7.700000e-01	0.000000e+00	0.0	7.800000e-01	0.000000e+00	0.0	7.900000e-01	0.000000e+00	0.0	8.000000e-01	0.000000e+00	0.0	8.100000e-01	0.000000e+00	0.0	8.200000e-01	0.000000e+00	0.0	8.300000e-01	0.000000e+00	0.0	8.400000e-01	0.000000e+00	0.0	8.500000e-01	0.000000e+00	0.0	8.600000e-01	0.000000e+00	0.0	8.700000e-01	0.000000e+00	0.0	8.800000e-01	0.000000e+00	0.0	8.900000e-01	0.000000e+00	0.0	9.000000e-01	0.000000e+00	0.0	9.100000e-01	0.000000e+00	0.0	9.200000e-01	0.000000e+00	0.0	9.300000e-01	0.000000e+00	0.0	9.400000e-01	0.000000e+00	0.0	9.500000e-01	0.000000e+00	0.0	9.600000e-01	0.000000e+00	0.0	9.700000e-01	0.000000e+00	0.0	9.800000e-01	0.000000e+00	0.0	9.900000e-01	0.000000e+00	0.0	1.000000e+00	0.000000e+00	0.0	0.000000e+00	1.000000e-02	0.0	1.000000e-02	1.000000e-02	0.0	2.000000e-02	1.000000e-02	0.0	3.000000e-02	1.000000e-02	0.0	4.000000e-02	1.000000e-02	0.0	5.000000e-02	1.000000e-02	0.0	6.000000e-02	1.000000e-02	0.0	7.000000e-02	1.000000e-02	0.0	8.000000e-02	1.000000e-02	0.0	9.000000e-02	1.000000e-02	0.0	1.000000e-01	1.000000e-02	0.0	1.100000e-01	1.000000e-02	0.0	1.200000e-01	1.000000e-02	0.0	1.300000e-01	1.000000e-02	0.0	1.400000e-01	1.000000e-02	0.0	1.500000e-01	1.000000e-02	0.0	1.600000e-01	1.000000e-02	0.0	1.700000e-01	1.000000e-02	0.0	1.800000e-01	1.000000e-02	0.0	1.900000e-01	1.000000e-02	0.0	2.000000e-01	1.000000e-02	0.0	2.100000e-01	1.000000e-02	0.0	2.200000e-01	1.000000e-02	0.0	2.300000e-01	1.000000e-02	0.0	2.400000e-01	1.000000e-02	0.0	2.500000e-01	1.000000e-02	0.0	2.600000e-01	1.000000e-02	0.0	2.700000e-01	1.000000e-02	0.0	2.800000e-01	1.000000e-02	0.0	2.900000e-01	1.000000e-02	0.0	3.000000e-01	1.000000e-02	0.0	3.100000e-01	1.000000e-02	0.0	3.200000e-01	1.000000e-02	0.0	3.300000e-01	1.000000e-02	0.0	3.400000e-01	1.000000e-02	0.0	3.500000e-01	1.000000e-02	0.0	3.600000e-01	1.000000e-02	0.0	3.700000e-01	1.000000e-02	0.0	3.800000e-01	1.000000e-02	0.0	3.900000e-01	1.000000e-02	0.0	4.000000e-01	1.000000e-02	0.0	4.100000e-01	1.000000e-02	0.0	4.200000e-01	1.000000e-02	0.0	4.300000e-01	1.000000e-02	0.0	4.400000e-01	1.000000e-02	0.0	4.500000e-01	1.000000e-02	0.0	4.600000e-01	1.000000e-02	0.0	4.700000e-01	1.000000e-02	0.0	4.800000e-01	1.000000e-02	0.0	4.900000e-01	1.000000e-02	0.0	5.000000e-01	1.000000e-02	0.0	5.100000e-01	1.000000e-02	0.0	5.200000e-01	1.000000e-02	0.0	5.300000e-01	1.000000e-02	0.0	5.400000e-01	1.000000e-02	0.0	5.500000e-01	1.000000e-02	0.0	5.600000e-01	1.000000e-02	0.0	5.700000e-01	1.000000e-02	0.0	5.800000e-01	1.000000e-02	0.0	5.900000e-01	1.000000e-02	0.0	6.000000e-01	1.000000e-02	0.0	6.100000e-01	1.000000e-02	0.0	6.200000e-01	1.000000e-02	0.0	6.300000e-01	1.000000e-02	0.0	6.400000e-01	1.000000e-02	0.0	6.500000e-01	1.000000e-02	0.0	6.600000e-01	1.000000e-02	0.0	6.700000e-01	1.000000e-02	0.0	6.800000e-01	1.000000e-02	0.0	6.900000e-01	1.000000e-02	0.0	7.000000e-01	1.000000e-02	0.0	7.100000e-01	1.000000e-02	0.0	7.200000e-01	1.000000e-02	0.0	7.300000e-01	1.000000e-02	0.0	7.400000e-01	1.000000e-02	0.0	7.500000e-01	1.000000e-02	0.0	7.600000e-01	1.000000e-02	0.0	7.700000e-01	1.000000e-02	0.0	7.800000e-01	1.000000e-02	0.0	7.900000e-01	1.000000e-02	0.0	8.000000e-01	1.000000e-02	0.0	8.100000e-01	1.000000e-02	0.0	8.200000e-01	1.000000e-02	0.0	8.300000e-01	1.000000e-02	0.0	8.400000e-01	1.000000e-02	0.0	8.500000e-01	1.000000e-02	0.0	8.600000e-01	1.000000e-02	0.0	8.700000e-01	1.000000e-02	0.0	8.800000e-01	1.000000e-02	0.0	8.900000e-01	1.000000e-02	0.0	9.000000e-01	1.000000e-02	0.0	9.100000e-01	1.000000e-02	0.0	9.200000e-01	1.000000e-02	0.0	9.300000e-01	1.000000e-02	0.0	9.400000e-01	1.000000e-02	0.0	9.500000e-01	1.000000e-02	0.0	9.600000e-01	1.000000e-02	0.0	9.700000e-01	1.000000e-02	0.0	9.800000e-01	1.000000e-02	0.0	9.900000e-01	1.000000e-02	0.0	1.000000e+00	1.000000e-02	0.0	0.000000e+00	2.000000e-02	0.0	1.000000e-02	2.000000e-02	0.0	2.000000e-02	2.000000e-02	0.0	3.000000e-02	2.000000e-02	0.0	4.000000e-02	2.000000e-02	0.0	5.000000e-02	2.000000e-02	0.0	6.000000e-02	2.000000e-02	0.0	7.000000e-02	2.000000e-02	0.0	8.000000e-02	2.000000e-02	0.0	9.000000e-02	2.000000e-02	0.0	1.000000e-01	2.000000e-02	0.0	1.100000e-01	2.000000e-02	0.0	1.200000e-01	2.000000e-02	0.0	1.300000e-01	2.000000e-02	0.0	1.400000e-01	2.000000e-02	0.0	1.500000e-01	2.000000e-02	0.0	1.600000e-01	2.000000e-02	0.0	1.700000e-01	2.000000e-02	0.0	1.800000e-01	2.000000e-02	0.0	1.900000e-01	2.000000e-02	0.0	2.000000e-01	2.000000e-02	0.0	2.100000e-01	2.000000e-02	0.0	2.200000e-01	2.000000e-02	0.0	2.300000e-01	2.000000e-02	0.0	2.400000e-01	2.000000e-02	0.0	2.500000e-01	2.000000e-02	0.0	2.600000e-01	2.000000e-02	0.0	2.700000e-01	2.000000e-02	0.0	2.800000e-01	2.000000e-02	0.0	2.900000e-01	2.000000e-02	0.0	3.000000e-01	2.000000e-02	0.0	3.100000e-01	2.000000e-02	0.0	3.200000e-01	2.000000e-02	0.0	3.300000e-01	2.000000e-02	0.0	3.400000e-01	2.000000e-02	0.0	3.500000e-01	2.000000e-02	0.0	3.600000e-01	2.000000e-02	0.0	3.700000e-01	2.000000e-02	0.0	3.800000e-01	2.000000e-02	0.0	3.900000e-01	2.000000e-02	0.0	4.000000e-01	2.000000e-02	0.0	4.100000e-01	2.000000e-02	0.0	4.200000e-01	2.000000e-02	0.0	4.300000e-01	2.000000e-02	0.0	4.400000e-01	2.000000e-02	0.0	4.500000e-01	2.000000e-02	0.0	4.600000e-01	2.000000e-02	0.0	4.700000e-01	2.000000e-02	0.0	4.800000e-01	2.000000e-02	0.0	4.900000e-01	2.000000e-02	0.0	5.000000e-01	2.000000e-02	0.0	5.100000e-01	2.000000e-02	0.0	5.200000e-01	2.000000e-02	0.0	5.300000e-01	2.000000e-02	0.0	5.400000e-01	2.000000e-02	0.0	5.500000e-01	2.000000e-02	0.0	5.600000e-01	2.000000e-02	0.0	5.700000e-01	2.000000e-02	0.0	5.800000e-01	2.000000e-02	0.0	5.900000e-01	2.000000e-02	0.0	6.000000e-01	2.000000e-02	0.0	6.100000e-01	2.000000e-02	0.0	6.200000e-01	2.000000e-02	0.0	6.300000e-01	2.000000e-02	0.0	6.400000e-01	2.000000e-02	0.0	6.500000e-01	2.000000e-02	0.0	6.600000e-01	2.000000e-02	0.0	6.700000e-01	2.000000e-02	0.0	6.800000e-01	2.000000e-02	0.0	6.900000e-01	2.000000e-02	0.0	7.000000e-01	2.000000e-02	0.0	7.100000e-01	2.000000e-02	0.0	7.200000e-01	2.000000e-02	0.0	7.300000e-01	2.000000e-02	0.0	7.400000e-01	2.000000e-02	0.0	7.500000e-01	2.000000e-02	0.0	7.600000e-01	2.000000e-02	0.0	7.700000e-01	2.000000e-02	0.0	7.800000e-01	2.000000e-02	0.0	7.900000e-01	2.000000e-02	0.0	8.000000e-01	2.000000e-02	0.0	8.100000e-01	2.000000e-02	0.0	8.200000e-01	2.000000e-02	0.0	8.300000e-01	2.000000e-02	0.0	8.400000e-01	2.000000e-02	0.0	8.500000e-01	2.000000e-02	0.0	8.600000e-01	2.000000e-02	0.0	8.700000e-01	2.000000e-02	0.0	8.800000e-01	2.000000e-02	0.0	8.900000e-01	2.000000e-02	0.0	9.000000e-01	2.000000e-02	0.0	9.100000e-01	2.000000e-02	0.0	9.200000e-01	2.000000e-02	0.0	9.300000e-01	2.000000e-02	0.0	9.400000e-01	2.000000e-02	0.0	9.500000e-01	2.000000e-02	0.0	9.600000e-01	2.000000e-02	0.0	9.700000e-01	2.000000e-02	0.0	9.800000e-01	2.000000e-02	0.0	9.900000e-01	2.000000e-02	0.0	1.000000e+00	2.000000e-02	0.0	0.000000e+00	3.000000e-02	0.0	1.000000e-02	3.000000e-02	0.0	2.000000e-02	3.000000e-02	0.0	3.000000e-02	3.000000e-02	0.0	4.000000e-02	3.000000e-02	0.0	5.000000e-02	3.000000e-02	0.0	6.000000e-02	3.000000e-02	0.0	7.000000e-02	3.000000e-02	0.0	8.000000e-02	3.000000e-02	0.0	9.000000e-02	3.000000e-02	0.0	1.000000e-01	3.000000e-02	0.0	1.100000e-01	3.000000e-02	0.0	1.200000e-01	3.000000e-02	0.0	1.300000e-01	3.000000e-02	0.0	1.400000e-01	3.000000e-02	0.0	1.500000e-01	3.000000e-02	0.0	1.600000e-01	3.000000e-02	0.0	1.700000e-01	3.000000e-02	0.0	1.800000e-01	3.000000e-02	0.0	1.900000e-01	3.000000e-02	0.0	2.000000e-01	3.000000e-02	0.0	2.100000e-01	3.000000e-02	0.0	2.200000e-01	3.000000e-02	0.0	2.300000e-01	3.000000e-02	0.0	2.400000e-01	3.000000e-02	0.0	2.500000e-01	3.000000e-02	0.0	2.600000e-01	3.000000
[...]
POINT_DATA 10201

SCALARS Height double 1
LOOKUP_TABLE default
9.995490e-01	9.995590e-01	9.995618e-01	9.995624e-01	9.995628e-01	9.995630e-01	9.995622e-01	9.995600e-01	9.995582e-01	9.995578e-01	9.995568e-01	9.995548e-01	9.995507e-01	9.995449e-01	9.995388e-01	9.995346e-01	9.995367e-01	9.995499e-01	9.995786e-01	9.996595e-01	9.998794e-01	1.000412e+00	1.001671e+00	1.004156e+00	1.007809e+00	1.011696e+00	1.014425e+00	1.015650e+00	1.015895e+00	1.015739e+00	1.015005e+00	1.013429e+00	1.010848e+00	1.007576e+00	1.004031e+00	1.000614e+00	9.975985e-01	9.951373e-01	9.933297e-01	9.921989e-01	9.916535e-01	9.915201e-01	9.915430e-01	9.916893e-01	9.920470e-01	9.927044e-01	9.936095e-01	9.945795e-01	9.954497e-01	9.961475e-01	9.966746e-01	9.970638e-01	9.973492e-01	9.975541e-01	9.976916e-01	9.977746e-01	9.978191e-01	9.978449e-01	9.978725e-01	9.979409e-01	9.981246e-01	9.985966e-01	9.997504e-01	1.002131e+00	1.005837e+00	1.010004e+00	1.013103e+00	1.014601e+00	1.014963e+00	1.014877e+00	1.014276e+00	1.012863e+00	1.010464e+00	1.007323e+00	1.003847e+00	1.000423e+00	9.973430e-01	9.947759e-01	9.928369e-01	9.915700e-01	9.909068e-01	9.906863e-01	9.906722e-01	9.907802e-01	9.910805e-01	9.916558e-01	9.925076e-01	9.934741e-01	9.943616e-01	9.950727e-01	9.955943e-01	9.959586e-01	9.962098e-01	9.963849e-01	9.965097e-01	9.966005e-01	9.966671e-01	9.967159e-01	9.967513e-01	9.967722e-01	9.967828e-01	9.995573e-01	9.995669e-01	9.995607e-01	9.995611e-01	9.995617e-01	9.995623e-01	9.995624e-01	9.995622e-01	9.995622e-01	9.995618e-01	9.995606e-01	9.995584e-01	9.995542e-01	9.995483e-01	9.995415e-01	9.995351e-01	9.995328e-01	9.995407e-01	9.995583e-01	9.996012e-01	9.997134e-01	1.000136e+00	1.001425e+00	1.004126e+00	1.008059e+00	1.011917e+00	1.014525e+00	1.015669e+00	1.015905e+00	1.015829e+00	1.015193e+00	1.013527e+00	1.010850e+00	1.007484e+00	1.003904e+00	1.000490e+00	9.974745e-01	9.950216e-01	9.932494e-01	9.921743e-01	9.916739e-01	9.915260e-01	9.915249e-01	9.916299e-01	9.919955e-01	9.926826e-01	9.936072e-01	9.945850e-01	9.954557e-01	9.961504e-01	9.966745e-01	9.970616e-01	9.973447e-01	9.975465e-01	9.976811e-01	9.977617e-01	9.978049e-01	9.978286e-01	9.978476e-01	9.978737e-01	9.979669e-01	9.983340e-01	9.994745e-01	1.002049e+00	1.006061e+00	1.010231e+00	1.013209e+00	1.014616e+00	1.014973e+00	1.014943e+00	1.014442e+00	1.012965e+00	1.010474e+00	1.007245e+00	1.003721e+00	1.000296e+00	9.972141e-01	9.946527e-01	9.927431e-01	9.915272e-01	9.909147e-01	9.907022e-01	9.906685e-01	9.907253e-01	9.910161e-01	9.916266e-01	9.925049e-01	9.934780e-01	9.943672e-01	9.950758e-01	9.955940e-01	9.959553e-01	9.962037e-01	9.963757e-01	9.964976e-01	9.965863e-01	9.966525e-01	9.967024e-01	9.967393e-01	9.967606e-01	9.967709e-01	9.995652e-01	9.995730e-01	9.995692e-01	9.995691e-01	9.995687e-01	9.995683e-01	9.995674e-01	9.995661e-01	9.995643e-01	9.995646e-01	9.995651e-01	9.995644e-01	9.995615e-01	9.995562e-01	9.995497e-01	9.995435e-01	9.995376e-01	9.995410e-01	9.995600e-01	9.996001e-01	9.997083e-01	1.000146e+00	1.001500e+00	1.004295e+00	1.008234e+00	1.011983e+00	1.014462e+00	1.015571e+00	1.015835e+00	1.015791e+00	1.015236e+00	1.013525e+00	1.010778e+00	1.007455e+00	1.003965e+00	1.000600e+00	9.976078e-01	9.951723e-01	9.934045e-01	9.923102e-01	9.917743e-01	9.916011e-01	9.915879e-01	9.916613e-01	9.920102e-01	9.927096e-01	9.936314e-01	9.945932e-01	9.954529e-01	9.961452e-01	9.966712e-01	9.970606e-01	9.973449e-01	9.975470e-01	9.976824e-01	9.977646e-01	9.978092e-01	9.978328e-01	9.978491e-01	9.978759e-01	9.979732e-01	9.983532e-01	9.995452e-01	1.002220e+00	1.006262e+00	1.010333e+00	1.013171e+00	1.014528e+00	1.014901e+00	1.014892e+00	1.014472e+00	1.012982e+00	1.010416e+00	1.007209e+00	1.003767e+00	1.000396e+00	9.973415e-01	9.947991e-01	9.928966e-01	9.916667e-01	9.910224e-01	9.907814e-01	9.907346e-01	9.907623e-01	9.910281e-01	9.916553e-01	9.925351e-01	9.934881e-01	9.943620e-01	9.950658e-01	9.955849e-01	9.959494e-01	9.962006e-01	9.963746e-01	9.964980e-01	9.965888e-01	9.966577e-01	9.967096e-01	9.967466e-01	9.967674e-01	9.967768e-01	9.995681e-01	9.995743e-01	9.995710e-01	9.995705e-01	9.995701e-01	9.995695e-01	9.995685e-01	9.995662e-01	9.995653e-01	9.995654e-01	9.995654e-01	9.995643e-01	9.995615e-01	9.995570e-01	9.995516e-01	9.995460e-01	9.995404e-01	9.995416e-01	9.995585e-01	9.995941e-01	9.996858e-01	1.000089e+00	1.001448e+00	1.004309e+00	1.008288e+00	1.012032e+00	1.014454e+00	1.015529e+00	1.015790e+00	1.015753e+00	1.015277e+00	1.013613e+00	1.010795e+00	1.007444e+00	1.003974e+00	1.000642e+00	9.976646e-01	9.952368e-01	9.934709e-01	9.923720e-01	9.918301e-01	9.916501e-01	9.916272e-01	9.916787e-01	9.919929e-01	9.926933e-01	9.936242e-01	9.945802e-01	9.954332e-01	9.961271e-01	9.966577e-01	9.970507e-01	9.973374e-01	9.975417e-01	9.976796e-01	9.977635e-01	9.978087e-01	9.978313e-01	9.978453e-01	9.978680e-01	9.979540e-01	9.983137e-01	9.994989e-01	1.002222e+00	1.006310e+00	1.010376e+00	1.013156e+00	1.014472e+00	1.014841e+00	1.014840e+00	1.014492e+00	1.013068e+00	1.010443e+00	1.007196e+00	1.003772e+00	1.000432e+00	9.973929e-01	9.948584e-01	9.929583e-01	9.917262e-01	9.910771e-01	9.908286e-01	9.907764e-01	9.907902e-01	9.910161e-01	9.916348e-01	9.925273e-01	9.934765e-01	9.943409e-01	9.950448e-01	9.955694e-01	9.959389e-01	9.961931e-01	9.963695e-01	9.964957e-01	9.965892e-01	9.966595e-01	9.967110e-01	9.967464e-01	9.967658e-01	9.967760e-01	9.995725e-01	9.995794e-01	9.995736e-01	9.995724e-01	9.995705e-01	9.995696e-01	9.995691e-01	9.995678e-01	9.995660e-01	9.995645e-01	9.995632e-01	9.995615e-01	9.995589e-01	9.995553e-01	9.995510e-01	9.995455e-01	9.995419e-01	9.995430e-01	9.995586e-01	9.995916e-01	9.996762e-01	1.000057e+00	1.001400e+00	1.004285e+00	1.008288e+00	1.012004e+00	1.014387e+00	1.015443e+00	1.015707e+00	1.015680e+00	1.015269e+00	1.013705e+00	1.010875e+00	1.007475e+00	1.004019e+00	1.000717e+00	9.977592e-01	9.953351e-01	9.935629e-01	9.924509e-01	9.918926e-01	9.916970e-01	9.916685e-01	9.917047e-01	9.919768e-01	9.926580e-01	9.936013e-01	9.945619e-01	9.954100e-01	9.961037e-01	9.966402e-01	9.970403e-01	9.973331e-01	9.975421e-01	9.976817e-01	9.977658e-01	9.978100e-01	9.978306e-01	9.978425e-01	9.978633e-01	9.979449e-01	9.982925e-01	9.994671e-01	1.002205e+00	1.006317e+00	1.010357e+00	1.013092e+00	1.014385e+00	1.014752e+00	1.014756e+00	1.014465e+00	1.013150e+00	1.010533e+00	1.007232e+00	1.003812e+00	1.000500e+00	9.974819e-01	9.949526e-01	9.930481e-01	9.918051e-01	9.911413e-01	9.908790e-01	9.908199e-01	9.908241e-01	9.910109e-01	9.915988e-01	9.924989e-01	9.934562e-01	9.943142e-01	9.950160e-01	9.955468e-01	9.959244e-01	9.961856e-01	9.963678e-01	9.964983e-01	9.965941e-01	9.966641e-01	9.967136e-01	9.967467e-01	9.967645e-01	9.967747e-01	9.995724e-01	9.995794e-01	9.995740e-01	9.995730e-01	9.995710e-01	9.995692e-01	9.995677e-01	9.995660e-01	9.995646e-01	9.995624e-01	9.995603e-01	9.995581e-01	9.995555e-01	9.995523e-01	9.995487e-01	9.995442e-01	9.995427e-01	9.995447e-01	9.995589e-01	9.995887e-01	9.996689e-01	1.000040e+00	1.001361e+00	1.004241e+00	1.008255e+00	1.011945e+00	1.014295e+00	1.015336e+00	1.015599e+00	1.015577e+00	1.015218e+00	1.013766e+00	1.010994e+00	1.007562e+00	1.004090e+00	1.000814e+00	9.978819e-01	9.954565e-01	9.936675e-01	9.925328e-01	9.919496e-01	9.917360e-01	9.916999e-01	9.917260e-01	9.919576e-01	9.926022e-01	9.935528e-01	9.945303e-01	9.953810e-01	9.960719e-01	9.966121e-01	9.970211e-01	9.973227e-01	9.975369e-01	9.976780e-01	9.977616e-01	9.978041e-01	9.978230e-01	9.978341e-01	9.978551e-01	9.979361e-01	9.982792e-01	9.994467e-01	1.002181e+00	1.006293e+00	1.010302e+00	1.012995e+00	1.014272e+00	1.014644e+00	1.014654e+00	1.014398e+00	1.013194e+00	1.010652e+00	1.007326e+00	1.003880e+00	1.000588e+00	9.975971e-01	9.950706e-01	9.931530e-01	9.918888e-01	9.912010e-01	9.909210e-01	9.908510e-01	9.908491e-01	9.910033e-01	9.915476e-01	9.924449e-01	9.934195e-01	9.942820e-01	9.949804e-01	9.955134e-01	9.958997e-01	9.961713e-01	9.963619e-01	9.964973e-01	9.965944e-01	9.966634e-01	9.967108e-01	9.967423e-01	9.967591e-01	9.967696e-01	9.995678e-01	9.995751e-01	9.995707e-01	9.995707e-01	9.995685e-01	9.995668e-01	9.995647e-01	9.995630e-01	9.995614e-01	9.995600e-01	9.995581e-01	9.995558e-01	9.995528e-01	9.995493e-01	9.995459e-01	9.995427e-01	9.995420e-01	9.995449e-01	9.995564e-01	9.995822e-01	9.996603e-01	1.000030e+00	1.001328e+00	1.004183e+00	1.008189e+00	1.011863e+00	1.014184e+00	1.015209e+00	1.015475e+00	1.015461e+00	1.015137e+00	1.013786e+00	1.011110e+00	1.007685e+00	1.004188e+00	1.000930e+00	9.980243e-01	9.955999e-01	9.937880e-01	9.926220e-01	9.920091e-01	9.917729e-01	9.917283e-01	9.917464e-01	9.919415e-01	9.925368e-01	9.934781e-01	9.944780e-01	9.953419e-01	9.960342e-01	9.965762e-01	9.969917e-01	9.973000e-01	9.975173e-01	9.976599e-01	9.977430e-01	9.977848e-01	9.978047e-01	9.978182e-01	9.978420e-01	9.979256e-01	9.982689e-01	9.994306e-01	1.002149e+00	1.006236e+00	1.010217e+00	1.012877e+00	1.014133e+00	1.014509e+00	1.014527e+00	1.014306e+00	1.013194e+00	1.010756e+00	1.007452e+00	1.003978e+00	1.000698e+00	9.977331e-01	9.952117e-01	9.932754e-01	9.919821e-01	9.912641e-01	9.909592e-01	9.908765e-01	9.908697e-01	9.909971e-01	9.914923e-01	9.923694e-01	9.933600e-01	9.942391e-01	9.949391e-01	9.954715e-01	9.958635e-01	9.961441e-01	9.963424e-01	9.964820e-01	9.965803e-01	9.966493e-01	9.966973e-01	9.967304e-01	9.967483e-01	9.967602e-01	9.995602e-01	9.995689e-01	9.995644e-01	9.995646e-01	9.995631e-01	9.995616e-01	9.995597e-01	9.995580e-01	9.995579e-01	9.995577e-01	9.995570e-01	9.995551e-01	9.995518e-01	9.995479e-01	9.995443e-01	9.995413e-01	9.995410e-01	9.995434e-01	9.995513e-01	9.995729e-01	9.996523e-01	1.000023e+00	1.001296e+00	1.004117e+00	1.008098e+00	1.011756e+00	1.014062e+00	1.015078e+00	1.015344e+00	1.015334e+00	1.015041e+00	1.013780e+00	1.011210e+00	1.007829e+00	1.004323e+00	1.001061e+00	9.981711e-01	9.957531e-01	9.939207e-01	9.927197e-01	9.920753e-01	9.918173e-01	9.917616e-01	9.917760e-01	9.919356e-01	9.924711e-01	9.933827e-01	9.943960e-01	9.952835e-01	9.959882e-01	9.965348e-01	9.969521e-01	9.972616e-01	9.974799e-01	9.976228e-01	9.977075e-01	9.977533e-01	9.977781e-01	9.977962e-01	9.978242e-01	9.979121e-01	9.982583e-01	9.994137e-01	1.002106e+00	1.006154e+00	1.010107e+00	1.012749e+00	1.013993e+00	1.014364e+00	1.014385e+00	1.014188e+00	1.013161e+00	1.010840e+00	1.007593e+00	1.004115e+00	1.000826e+00	9.978749e-01	9.953627e-01	9.934096e-01	9.920837e-01	9.913342e-01	9.910056e-01	9.909092e-01	9.908982e-01	9.909991e-01	9.914398e-01	9.922786e-01	9.932756e-01	9.941759e-01	9.948878e-01	9.954237e-01	9.958177e-01	9.961016e-01	9.963037e-01	9.964460e-01	9.965470e-01	9.966200e-01	9.966731e-01	9.967113e-01	9.967316e-01	9.967462e-01	9.995535e-01	9.995631e-01	9.995581e-01	9.995589e-01	9.995578e-01	9.995567e-01	9.995554e-01	9.995549e-01	9.995548e-01	9.995559e-01	9.995562e-01	9.995551e-01	9.995521e-01	9.995480e-01	9.995440e-01	9.995408e-01	9.995390e-01	9.995404e-01	9.995437e-01	9.995628e-01	9.996459e-01	1.000016e+00	1.001264e+00	1.004039e+00	1.007981e+00	1.011623e+00	1.013930e+00	1.014949e+00	1.015216e+00	1.015208e+00	1.014941e+00	1.013765e+00	1.011306e+00	1.007988e+00	1.004485e+00	1.001211e+00	9.983244e-01	9.959120e-01	9.940654e-01	9.928317e-01	9.921524e-01	9.918734e-01	9.918083e-01	9.918200e-01	9.919444e-01	9.924117e-01	9.932733e-01	9.942847e-01	9.951970e-01	9.959244e-01	9.964828e-01	9.969041e-01	9.972149e-01	9.974342e-01	9.975796e-01	9.976693e-01	9.977211e-01	9.977509e-01	9.977730e-01	9.978046e-01	9.978969e-01	9.982473e-01	9.993954e-01	1.002051e+00	1.006046e+00	1.009968e+00	1.012608e+00	1.013855e+00	1.014227e+00	1.014247e+00	1.014064e+00	1.013117e+00	1.010914e+00	1.007742e+00	1.004274e+00	1.000972e+00	9.980235e-01	9.955182e-01	9.935537e-01	9.921967e-01	9.914137e-01	9.910636e-01	9.909565e-01	9.909417e-01	9.910157e-01	9.913946e-01	9.921775e-01	9.931613e-01	9.940816e-01	9.948177e-01	9.953670e-01	9.957658e-01	9.960517e-01	9.962554e-01	9.964014e-01	9.965080e-01	9.965873e-01	9.966460e-01	9.966884e-01	9.967104e-01	9.967278e-01	9.995499e-01	9.995595e-01	9.995549e-01	9.995562e-01	9.995553e-01	9.995544e-01	9.995537e-01	9.995535e-01	9.995544e-01	9.995548e-01	9.995557e-01	9.995548e-01	9.995525e-01	9.995485e-01	9.995441e-01	9.995405e-01	9.995378e-01	9.995384e-01	9.995410e-01	9.995575e-01	9.996438e-01	1.000016e+00	1.001238e+00	1.003958e+00	1.007840e+00	1.011460e+00	1.013778e+00	1.014813e+00	1.015089e+00	1.015083e+00	1.014843e+00	1.013756e+00	1.011413e+00	1.008169e+00	1.004681e+00	1.001394e+00	9.984994e-01	9.960855e-01	9.942267e-01	9.929646e-01	9.922491e-01	9.919423e-01	9.918683e-01	9.918769e-01	9.919700e-01	9.923642e-01	9.931638e-01	9.941604e-01	9.950917e-01	9.958454e-01	9.964221e-01	9.968531e-01	9.971707e-01	9.973954e-01	9.975462e-01	9.976411e-01	9.976970e-01	9.977296e-01	9.977537e-01	9.977871e-01	9.978838e-01	9.982409e-01	9.993820e-01	1.001991e+00	1.005915e+00	1.009800e+00	1.012445e+00	1.013711e+00	1.014092e+00	1.014114e+00	1.013946e+00	1.013076e+00	1.010995e+00	1.007911e+00	1.004466e+00	1.001153e+00	9.981935e-01	9.956864e-01	9.937122e-01	9.923284e-01	9.915099e-01	9.911321e-01	9.910164e-01	9.909988e-01	9.910483e-01	9.913621e-01	9.920778e-01	9.930364e-01	9.939700e-01	9.947315e-01	9.953004e-01	9.957102e-01	9.960029e-01	9.962132e-01	9.963661e-01	9.964790e-01	9.965629e-01	9.966242e-01	9.966676e-01	9.966892e-01	9.967087e-01	9.995489e-01	9.995593e-01	9.995539e-01	9.995558e-01	9.995550e-01	9.995542e-01	9.995536e-01	9.995537e-01	9.995546e-01	9.995557e-01	9.995557e-01	9.995553e-01	9.995529e-01	9.995492e-01	9.995448e-01	9.995406e-01	9.995369e-01	9.995362e-01	9.995385e-01	9.995573e-01	9.996469e-01	1.000019e+00	1.001221e+00	1.003875e+00	1.007679e+00	1.011265e+00	1.013599e+00	1.014662e+00	1.014954e+00	1.014955e+00	1.014745e+00	1.013754e+00	1.011538e+00	1.008378e+00	1.004918e+00	1.001624e+00	9.987146e-01	9.962895e-01	9.944149e-01	9.931236e-01	9.923717e-01	9.920318e-01	9.919384e-01	9.919425e-01	9.920086e-01	9.923306e-01	9.930606e-01	9.940347e-01	9.949803e-01	9.957591e-01	9.963573e-01	9.968052e-01	9.971346e-01	9.973686e-01	9.975257e-01	9.976236e-01	9.976807e-01	9.977139e-01	9.977385e-01	9.977738e-01	9.978770e-01	9.982447e-01	9.993822e-01	1.001935e+00	1.005768e+00	1.009601e+00	1.012253e+00	1.013548e+00	1.013949e+00	1.013976e+00	1.013830e+00	1.013044e+00	1.011091e+00	1.008106e+00	1.004698e+00	1.001379e+00	9.984034e-01	9.958844e-01	9.938960e-01	9.924859e-01	9.916324e-01	9.912213e-01	9.910851e-01	9.910625e-01	9.910934e-01	9.913440e-01	9.919866e-01	9.929115e-01	9.938511e-01	9.946355e-01	9.952277e-01	9.956555e-01	9.959618e-01	9.961829e-01	9.963438e-01	9.964618e-01	9.965480e-01	9.966094e-01	9.966517e-01	9.966718e-01	9.966924e-01	9.995495e-01	9.995604e-01	9.995542e-01	9.995567e-01	9.995558e-01	9.995549e-01	9.995542e-01	9.995544e-01	9.995551e-01	9.995562e-01	9.995563e-01	9.995555e-01	9.995540e-01	9.995501e-01	9.995459e-01	9.995415e-01	9.995370e-01	9.995350e-01	9.995366e-01	9.995563e-01	9.996500e-01	1.000025e+00	1.001204e+00	1.003789e+00	1.007502e+00	1.011041e+00	1.013389e+00	1.014489e+00	1.014807e+00	1.014816e+00	1.014638e+00	1.013754e+00	1.011675e+00	1.008615e+00	1.005197e+00	1.001905e+00	9.989811e-01	9.965375e-01	9.946380e-01	9.933116e-01	9.925186e-01	9.921410e-01	9.920217e-01	9.920152e-01	9.920585e-01	9.923111e-01	9.929643e-01	9.939103e-01	9.948690e-01	9.956731e-01	9.962946e-01	9.967612e-01	9.971043e-01	9.973478e-01	9.975098e-01	9.976098e-01	9.976672e-01	9.977003e-01	9.977254e-01	9.977638e-01	9.978754e-01	9.982561e-01	9.993898e-01	1.001882e+00	1.005610e+00	1.009374e+00	1.012029e+00	1.013361e+00	1.013791e+00	1.013828e+00	1.013706e+00	1.013013e+00	1.011200e+00	1.008326e+00	1.004969e+00	1.001655e+00	9.986636e-01	9.961259e-01	9.941155e-01	9.926738e-01	9.917805e-01	9.913316e-01	9.911675e-01	9.911335e-01	9.911469e-01	9.913379e-01	9.919044e-01	9.927891e-01	9.937312e-01	9.945378e-01	9.951546e-01	9.956034e-01	9.959261e-01	9.961587e-01	9.963270e-01	9.964491e-01	9.965369e-01	9.965980e-01	9.966390e-01	9.966578e-01	9.966789e-01	9.995498e-01	9.995611e-01	9.995540e-01	9.995570e-01	9.995562e-01	9.995553e-01	9.995544e-01	9.995544e-01	9.995551e-01	9.995555e-01	9.995557e-01	9.995548e-01	9.995534e-01	9.995512e-01	9.995471e-01	9.995422e-01	9.995371e-01	9.995337e-01	9.995345e-01	9.995551e-01	9.996532e-01	1.000031e+00	1.001188e+00	1.003699e+00	1.007310e+00	1.010792e+00	1.013149e+00	1.014288e+00	1.014639e+00	1.014662e+00	1.014520e+00	1.013741e+00	1.011811e+00	1.008869e+00	1.005507e+00	1.002226e+00	9.992929e-01	9.968279e-01	9.948958e-01	9.935253e-01	9.926819e-01	9.922613e-01	9.921122e-01	9.920932e-01	9.921187e-01	9.923070e-01	9.928737e-01	9.937809e-01	9.947516e-01	9.955844e-01	9.962319e-01	9.967173e-01	9.970732e-01	9.973251e-01	9.974915e-01	9.975932e-01	9.976510e-01	9.976846e-01	9.977115e-01	9.977549e-01	9.978768e-01	9.982716e-01	9.994012e-01	1.001831e+00	1.005445e+00	1.009127e+00	1.011775e+00	1.013144e+00	1.013611e+00	1.013663e+00	1.013567e+00	1.012971e+00	1.011309e+00	1.008562e+00	1.005270e+00	1.001969e+00	9.989672e-01	9.964096e-01	9.943712e-01	9.928897e-01	9.919482e-01	9.914542e-01	9.912586e-01	9.912101e-01	9.912081e-01	9.913438e-01	9.918275e-01	9.926629e-01	9.936047e-01	9.944348e-01	9.950786e-01	9.955496e-01	9.958886e-01	9.961324e-01	9.963079e-01	9.964338e-01	9.965231e-01	9.965846e-01	9.966254e-01	9.966436e-01	9.966651e-01	9.995488e-01	9.995603e-01	9.995521e-01	9.995556e-01	9.995551e-01	9.995546e-01	9.995537e-01	9.995536e-01	9.995538e-01	9.995537e-01	9.995533e-01	9.995525e-01	9.995514e-01	9.995496e-01	9.995464e-01	9.995414e-01	9.995352e-01	9.995306e-01	9.995304e-01	9.995515e-01	9.996544e-01	1.000036e+00	1.001171e+00	1.003602e+00	1.007105e+00	1.010523e+00	1.012884e+00	1.014062e+00	1.014448e+00	1.014488e+00	1.014381e+00	1.013708e+00	1.011936e+00	1.009126e+00	1.005833e+00	1.002573e+00	9.996328e-01	9.971465e-01	9.951790e-01	9.937571e-01	9.928569e-01	9.923855e-01	9.922037e-01	9.921693e-01	9.921844e-01	9.923154e-01	9.927871e-01	9.936394e-01	9.946176e-01	9.954835e-01	9.961614e-01	9.966671e-01	9.970353e-01	9.972943e-01	9.974651e-01	9.975694e-01	9.976289e-01	9.976647e-01	9.976953e-01	9.977456e-01	9.978791e-01	9.982890e-01	9.994144e-01	1.001776e+00	1.005271e+00	1.008863e+00	1.011497e+00	1.012900e+00	1.013406e+00	1.013478e+00	1.013406e+00	1.012906e+00	1.011404e+00	1.008801e+00	1.005585e+00	1.002306e+00	9.992983e-01	9.967226e-01	9.946543e-01	9.931279e-01	9.921309e-01	9.915844e-01	9.913528e-01	9.912866e-01	9.912758e-01	9.913608e-01	9.917535e-01	9.925258e-01	9.934621e-01	9.943180e-01	9.949917e-01	9.954864e-01	9.958419e-01	9.960967e-01	9.962797e-01	9.964103e-01	9.965024e-01	9.965655e-01	9.966074e-01	9.966259e-01	9.966481e-01	9.995465e-01	9.995573e-01	9.995482e-01	9.995520e-01	9.995520e-01	9.995522e-01	9.995520e-01	9.995520e-01	9.995517e-01	9.995509e-01	9.995497e-01	9.995486e-01	9.995476e-01	9.995458e-01	9.995420e-01	9.995372e-01	9.995308e-01	9.995251e-01	9.995243e-01	9.995469e-01	9.996548e-01	1.000040e+00	1.001150e+00	1.003499e+00	1.006889e+00	1.010238e+00	1.012600e+00	1.013814e+00	1.014235e+00	1.014293e+00	1.014215e+00	1.013645e+00	1.012040e+00	1.009376e+00	1.006164e+00	1.002930e+00	9.999866e-01	9.974806e-01	9.954783e-01	9.940046e-01	9.930415e-01	9.925135e-01	9.922930e-01	9.922397e-01	9.922463e-01	9.923308e-01	9.927047e-01	9.934827e-01	9.944581e-01	9.953596e-01	9.960739e-01	9.966044e-01	9.969866e-01	9.972529e-01	9.974288e-01	9.975371e-01	9.976005e-01	9.976406e-01	9.976768e-01	9.977345e-01	9.978810e-01	9.983067e-01	9.994268e-01	1.001718e+00	1.005086e+00	1.008584e+00	1.011200e+00	1.012634e+00	1.013179e+00	1.013273e+00	1.013221e+00	1.012814e+00	1.011476e+00	1.009030e+00	1.005904e+00	1.002656e+00	9.996470e-01	9.970552e-01	9.949581e-01	9.933860e-01	9.923295e-01	9.917239e-01	9.914493e-01	9.913616e-01	9.913426e-01	9.913862e-01	9.916842e-01	9.923754e-01	9.932961e-01	9.941785e-01	9.948859e-01	9.954072e-01	9.957806e-01	9.960474e-01	9.962389e-01	9.963758e-01	9.964726e-01	9.965392e-01	9.965837e-01	9.966034e-01	9.966268e-01	9.995432e-01	9.995531e-01	9.995431e-01	9.995460e-01	9.995459e-01	9.995475e-01	9.995488e-01	9.995494e-01	9.995490e-01	9.995476e-01	9.995457e-01	9.995440e-01	9.995426e-01	9.995402e-01	9.995366e-01	9.995310e-01	9.995247e-01	9.995192e-01	9.995195