# vtk DataFile Version 3.0
vtk output
ASCII
DATASET STRUCTURED_GRID
DIMENSIONS 101 101 1
POINTS 10201 double
0.000000e+00	0.000000e+00	0.0	1.000000e-02	0.000000e+00	0.0	2.000000e-02	0.000000e+00	0.0	3.000000e-02	0.000000e+00	0.0	4.000000e-02	0.000000e+00	0.0	5.000000e-02	0.000000e+00	0.0	6.000000e-02	0.000000e+00	0.0	7.000000e-02	0.000000e+00	0.0	8.000000e-02	0.000000e+00	0.0	9.000000e-02	0.000000e+00	0.0	1.000000e-01	0.000000e+00	0.0	1.100000e-01	0.000000e+00	0.0	1.200000e-01	0.000000e+00	0.0	1.300000e-01	0.000000e+00	0.0	1.400000e-01	0.000000e+00	0.0	1.500000e-01	0.000000e+00	0.0	1.600000e-01	0.000000e+00	0.0	1.700000e-01	0.000000e+00	0.0	1.800000e-01	0.000000e+00	0.0	1.900000e-01	0.000000e+00	0.0	2.000000e-01	0.000000e+00	0.0	2.100000e-01	0.000000e+00	0.0	2.200000e-01	0.000000e+00	0.0	2.300000e-01	0.000000e+00	0.0	2.400000e-01	0.000000e+00	0.0	2.500000e-01	0.000000e+00	0.0	2.600000e-01	0.000000e+00	0.0	2.700000e-01	0.000000e+00	0.0	2.800000e-01	0.000000e+00	0.0	2.900000e-01	0.000000e+00	0.0	3.000000e-01	0.000000e+00	0.0	3.100000e-01	0.000000e+00	0.0	3.200000e-01	0.000000e+00	0.0	3.300000e-01	0.000000e+00	0.0	3.400000e-01	0.000000e+00	0.0	3.500000e-01	0.000000e+00	0.0	3.600000e-01	0.000000e+00	0.0	3.700000e-01	0.000000e+00	0.0	3.800000e-01	0.000000e+00	0.0	3.900000e-01	0.000000e+00	0.0	4.000000e-01	0.000000e+00	0.0	4.100000e-01	0.000000e+00	0.0	4.200000e-01	0.000000e+00	0.0	4.300000e-01	0.000000e+00	0.0	4.400000e-01	0.000000e+00	0.0	4.500000e-01	0.000000e+00	0.0	4.600000e-01	0.000000e+00	0.0	4.700000e-01	0.000000e+00	0.0	4.800000e-01	0.000000e+00	0.0	4.900000e-01	0.000000e+00	0.0	5.000000e-01	0.000000e+00	0.0	5.100000e-01	0.000000e+00	0.0	5.200000e-01	0.000000e+00	0.0	5.300000e-01	0.000000e+00	0.0	5.400000e-01	0.000000e+00	0.0	5.500000e-01	0.000000e+00	0.0	5.600000e-01	0.000000e+00	0.0	5.700000e-01	0.000000e+00	0.0	5.800000e-01	0.000000e+00	0.0	5.900000e-01	0.000000e+00	0.0	6.000000e-01	0.000000e+00	0.0	6.100000e-01	0.000000e+00	0.0	6.200000e-01	0.000000e+00	0.0	6.300000e-01	0.000000e+00	0.0	6.400000e-01	0.000000e+00	0.0	6.500000e-01	0.000000e+00	0.0	6.600000e-01	0.000000e+00	0.0	6.700000e-01	0.000000e+00	0.0	6.800000e-01	0.000000e+00	0.0	6.900000e-01	0.000000e+00	0.0	7.000000e-01	0.000000e+00	0.0	7.100000e-01	0.000000e+00	0.0	7.200000e-01	0.000000e+00	0.0	7.300000e-01	0.000000e+00	0.0	7.400000e-01	0.000000e+00	0.0	7.500000e-01	0.000000e+00	0.0	7.600000e-01	0.000000e+00	0.0	7.700000e-01	0.000000e+00	0.0	7.800000e-01	0.000000e+00	0.0	7.900000e-01	0.000000e+00	0.0	8.000000e-01	0.000000e+00	0.0	8.100000e-01	0.000000e+00	0.0	8.200000e-01	0.000000e+00	0.0	8.300000e-01	0.000000e+00	0.0	8.400000e-01	0.000000e+00	0.0	8.500000e-01	0.000000e+00	0.0	8.600000e-01	0.000000e+00	0.0	8.700000e-01	0.000000e+00	0.0	8.800000e-01	0.000000e+00	0.0	8.900000e-01	0.000000e+00	0.0	9.000000e-01	0.000000e+00	0.0	9.100000e-01	0.000000e+00	0.0	9.200000e-01	0.000000e+00	0.0	9.300000e-01	0.000000e+00	0.0	9.400000e-01	0.000000e+00	0.0	9.500000e-01	0.000000e+00	0.0	9.600000e-01	0.000000e+00	0.0	9.700000e-01	0.000000e+00	0.0	9.800000e-01	0.000000e+00	0.0	9.900000e-01	0.000000e+00	0.0	1.000000e+00	0.000000e+00	0.0	0.000000e+00	1.000000e-02	0.0	1.000000e-02	1.000000e-02	0.0	2.000000e-02	1.000000e-02	0.0	3.000000e-02	1.000000e-02	0.0	4.000000e-02	1.000000e-02	0.0	5.000000e-02	1.000000e-02	0.0	6.000000e-02	1.000000e-02	0.0	7.000000e-02	1.000000e-02	0.0	8.000000e-02	1.000000e-02	0.0	9.000000e-02	1.000000e-02	0.0	1.000000e-01	1.000000e-02	0.0	1.100000e-01	1.000000e-02	0.0	1.200000e-01	1.000000e-02	0.0	1.300000e-01	1.000000e-02	0.0	1.400000e-01	1.000000e-02	0.0	1.500000e-01	1.000000e-02	0.0	1.600000e-01	1.000000e-02	0.0	1.700000e-01	1.000000e-02	0.0	1.800000e-01	1.000000e-02	0.0	1.900000e-01	1.000000e-02	0.0	2.000000e-01	1.000000e-02	0.0	2.100000e-01	1.000000e-02	0.0	2.200000e-01	1.000000e-02	0.0	2.300000e-01	1.000000e-02	0.0	2.400000e-01	1.000000e-02	0.0	2.500000e-01	1.000000e-02	0.0	2.600000e-01	1.000000e-02	0.0	2.700000e-01	1.000000e-02	0.0	2.800000e-01	1.000000e-02	0.0	2.900000e-01	1.000000e-02	0.0	3.000000e-01	1.000000e-02	0.0	3.100000e-01	1.000000e-02	0.0	3.200000e-01	1.000000e-02	0.0	3.300000e-01	1.000000e-02	0.0	3.400000e-01	1.000000e-02	0.0	3.500000e-01	1.000000e-02	0.0	3.600000e-01	1.000000e-02	0.0	3.700000e-01	1.000000e-02	0.0	3.800000e-01	1.000000e-02	0.0	3.900000e-01	1.000000e-02	0.0	4.000000e-01	1.000000e-02	0.0	4.100000e-01	1.000000e-02	0.0	4.200000e-01	1.000000e-02	0.0	4.300000e-01	1.000000e-02	0.0	4.400000e-01	1.000000e-02	0.0	4.500000e-01	1.000000e-02	0.0	4.600000e-01	1.000000e-02	0.0	4.700000e-01	1.000000e-02	0.0	4.800000e-01	1.000000e-02	0.0	4.900000e-01	1.000000e-02	0.0	5.000000e-01	1.000000e-02	0.0	5.100000e-01	1.000000e-02	0.0	5.200000e-01	1.000000e-02	0.0	5.300000e-01	1.000000e-02	0.0	5.400000e-01	1.000000e-02	0.0	5.500000e-01	1.000000e-02	0.0	5.600000e-01	1.000000e-02	0.0	5.700000e-01	1.000000e-02	0.0	5.800000e-01	1.000000e-02	0.0	5.900000e-01	1.000000e-02	0.0	6.000000e-01	1.000000e-02	0.0	6.100000e-01	1.000000e-02	0.0	6.200000e-01	1.000000e-02	0.0	6.300000e-01	1.000000e-02	0.0	6.400000e-01	1.000000e-02	0.0	6.500000e-01	1.000000e-02	0.0	6.600000e-01	1.000000e-02	0.0	6.700000e-01	1.000000e-02	0.0	6.800000e-01	1.000000e-02	0.0	6.900000e-01	1.000000e-02	0.0	7.000000e-01	1.000000e-02	0.0	7.100000e-01	1.000000e-02	0.0	7.200000e-01	1.000000e-02	0.0	7.300000e-01	1.000000e-02	0.0	7.400000e-01	1.000000e-02	0.0	7.500000e-01	1.000000e-02	0.0	7.600000e-01	1.000000e-02	0.0	7.700000e-01	1.000000e-02	0.0	7.800000e-01	1.000000e-02	0.0	7.900000e-01	1.000000e-02	0.0	8.000000e-01	1.000000e-02	0.0	8.100000e-01	1.000000e-02	0.0	8.200000e-01	1.000000e-02	0.0	8.300000e-01	1.000000e-02	0.0	8.400000e-01	1.000000e-02	0.0	8.500000e-01	1.000000e-02	0.0	8.600000e-01	1.000000e-02	0.0	8.700000e-01	1.000000e-02	0.0	8.800000e-01	1.000000e-02	0.0	8.900000e-01	1.000000e-02	0.0	9.000000e-01	1.000000e-02	0.0	9.100000e-01	1.000000e-02	0.0	9.200000e-01	1.000000e-02	0.0	9.300000e-01	1.000000e-02	0.0	9.400000e-01	1.000000e-02	0.0	9.500000e-01	1.000000e-02	0.0	9.600000e-01	1.000000e-02	0.0	9.700000e-01	1.000000e-02	0.0	9.800000e-01	1.000000e-02	0.0	9.900000e-01	1.000000e-02	0.0	1.000000e+00	1.000000e-02	0.0	0.000000e+00	2.000000e-02	0.0	1.000000e-02	2.000000e-02	0.0	2.000000e-02	2.000000e-02	0.0	3.000000e-02	2.000000e-02	0.0	4.000000e-02	2.000000e-02	0.0	5.000000e-02	2.000000e-02	0.0	6.000000e-02	2.000000e-02	0.0	7.000000e-02	2.000000e-02	0.0	8.000000e-02	2.000000e-02	0.0	9.000000e-02	2.000000e-02	0.0	1.000000e-01	2.000000e-02	0.0	1.100000e-01	2.000000e-02	0.0	1.200000e-01	2.000000e-02	0.0	1.300000e-01	2.000000e-02	0.0	1.400000e-01	2.000000e-02	0.0	1.500000e-01	2.000000e-02	0.0	1.600000e-01	2.000000e-02	0.0	1.700000e-01	2.000000e-02	0.0	1.800000e-01	2.000000e-02	0.0	1.900000e-01	2.000000e-02	0.0	2.000000e-01	2.000000e-02	0.0	2.100000e-01	2.000000e-02	0.0	2.200000e-01	2.000000e-02	0.0	2.300000e-01	2.000000e-02	0.0	2.400000e-01	2.000000e-02	0.0	2.500000e-01	2.000000e-02	0.0	2.600000e-01	2.000000e-02	0.0	2.700000e-01	2.000000e-02	0.0	2.800000e-01	2.000000e-02	0.0	2.900000e-01	2.000000e-02	0.0	3.000000e-01	2.000000e-02	0.0	3.100000e-01	2.000000e-02	0.0	3.200000e-01	2.000000e-02	0.0	3.300000e-01	2.000000e-02	0.0	3.400000e-01	2.000000e-02	0.0	3.500000e-01	2.000000e-02	0.0	3.600000e-01	2.000000e-02	0.0	3.700000e-01	2.000000e-02	0.0	3.800000e-01	2.000000e-02	0.0	3.900000e-01	2.000000e-02	0.0	4.000000e-01	2.000000e-02	0.0	4.100000e-01	2.000000e-02	0.0	4.200000e-01	2.000000e-02	0.0	4.300000e-01	2.000000e-02	0.0	4.400000e-01	2.000000e-02	0.0	4.500000e-01	2.000000e-02	0.0	4.600000e-01	2.000000e-02	0.0	4.700000e-01	2.000000e-02	0.0	4.800000e-01	2.000000e-02	0.0	4.900000e-01	2.000000e-02	0.0	5.000000e-01	2.000000e-02	0.0	5.100000e-01	2.000000e-02	0.0	5.200000e-01	2.000000e-02	0.0	5.300000e-01	2.000000e-02	0.0	5.400000e-01	2.000000e-02	0.0	5.500000e-01	2.000000e-02	0.0	5.600000e-01	2.000000e-02	0.0	5.700000e-01	2.000000e-02	0.0	5.800000e-01	2.000000e-02	0.0	5.900000e-01	2.000000e-02	0.0	6.000000e-01	2.000000e-02	0.0	6.100000e-01	2.000000e-02	0.0	6.200000e-01	2.000000e-02	0.0	6.300000e-01	2.000000e-02	0.0	6.400000e-01	2.000000e-02	0.0	6.500000e-01	2.000000e-02	0.0	6.600000e-01	2.000000e-02	0.0	6.700000e-01	2.000000e-02	0.0	6.800000e-01	2.000000e-02	0.0	6.900000e-01	2.000000e-02	0.0	7.000000e-01	2.000000e-02	0.0	7.100000e-01	2.000000e-02	0.0	7.200000e-01	2.000000e-02	0.0	7.300000e-01	2.000000e-02	0.0	7.400000e-01	2.000000e-02	0.0	7.500000e-01	2.000000e-02	0.0	7.600000e-01	2.000000e-02	0.0	7.700000e-01	2.000000e-02	0.0	7.800000e-01	2.000000e-02	0.0	7.900000e-01	2.000000e-02	0.0	8.000000e-01	2.000000e-02	0.0	8.100000e-01	2.000000e-02	0.0	8.200000e-01	2.000000e-02	0.0	8.300000e-01	2.000000e-02	0.0	8.400000e-01	2.000000e-02	0.0	8.500000e-01	2.000000e-02	0.0	8.600000e-01	2.000000e-02	0.0	8.700000e-01	2.000000e-02	0.0	8.800000e-01	2.000000e-02	0.0	8.900000e-01	2.000000e-02	0.0	9.000000e-01	2.000000e-02	0.0	9.100000e-01	2.000000e-02	0.0	9.200000e-01	2.000000e-02	0.0	9.300000e-01	2.000000e-02	0.0	9.400000e-01	2.000000e-02	0.0	9.500000e-01	2.000000e-02	0.0	9.600000e-01	2.000000e-02	0.0	9.700000e-01	2.000000e-02	0.0	9.800000e-01	2.000000e-02	0.0	9.900000e-01	2.000000e-02	0.0	1.000000e+00	2.000000e-02	0.0	0.000000e+00	3.000000e-02	0.0	1.000000e-02	3.000000e-02	0.0	2.000000e-02	3.000000e-02	0.0	3.000000e-02	3.000000e-02	0.0	4.000000e-02	3.000000e-02	0.0	5.000000e-02	3.000000e-02	0.0	6.000000e-02	3.000000e-02	0.0	7.000000e-02	3.000000e-02	0.0	8.000000e-02	3.000000e-02	0.0	9.000000e-02	3.000000e-02	0.0	1.000000e-01	3.000000e-02	0.0	1.100000e-01	3.000000e-02	0.0	1.200000e-01	3.000000e-02	0.0	1.300000e-01	3.000000e-02	0.0	1.400000e-01	3.000000e-02	0.0	1.500000e-01	3.000000e-02	0.0	1.600000e-01	3.000000e-02	0.0	1.700000e-01	3.000000e-02	0.0	1.800000e-01	3.000000e-02	0.0	1.900000e-01	3.000000e-02	0.0	2.000000e-01	3.000000e-02	0.0	2.100000e-01	3.000000e-02	0.0	2.200000e-01	3.000000e-02	0.0	2.300000e-01	3.000000e-02	0.0	2.400000e-01	3.000000e-02	0.0	2.500000e-01	3.000000e-02	0.0	2.600000e-01	3.000000
[...]
POINT_DATA 10201

SCALARS Height double 1
LOOKUP_TABLE default
9.448560e-01	9.466308e-01	9.499863e-01	9.566778e-01	9.667734e-01	9.801870e-01	9.960171e-01	1.012132e+00	1.026220e+00	1.036773e+00	1.043311e+00	1.045538e+00	1.043010e+00	1.031030e+00	1.013385e+00	9.995375e-01	9.930080e-01	9.909831e-01	9.905781e-01	9.905828e-01	9.906393e-01	9.906509e-01	9.905866e-01	9.904521e-01	9.902524e-01	9.899825e-01	9.896263e-01	9.891646e-01	9.885659e-01	9.877983e-01	9.867925e-01	9.854378e-01	9.835893e-01	9.811266e-01	9.781168e-01	9.749812e-01	9.724531e-01	9.709629e-01	9.704944e-01	9.707124e-01	9.717803e-01	9.740428e-01	9.777266e-01	9.833723e-01	9.914545e-01	1.002307e+00	1.015803e+00	1.030362e+00	1.043122e+00	1.052189e+00	1.057329e+00	1.058781e+00	1.055638e+00	1.043664e+00	1.025049e+00	1.009937e+00	1.002900e+00	1.000731e+00	1.000192e+00	1.000058e+00	1.000019e+00	1.000006e+00	1.000002e+00	1.000000e+00	1.000000e+00	1.000000e+00	1.000000e+00	1.000000e+00	1.000000e+00	1.000000e+00	1.000000e+00	1.000000e+00	1.000000e+00	1.000000e+00	1.000000e+00	1.000000e+00	1.000000e+00	1.000000e+00	1.000000e+00	1.000000e+00	1.000000e+00	1.000000e+00	1.000000e+00	1.000000e+00	1.000000e+00	1.000000e+00	1.000000e+00	1.000000e+00	1.000000e+00	1.000000e+00	1.000000e+00	1.000000e+00	1.000000e+00	1.000000e+00	1.000000e+00	1.000000e+00	1.000000e+00	1.000000e+00	1.000000e+00	1.000000e+00	1.000000e+00	9.466308e-01	9.484502e-01	9.517875e-01	9.585721e-01	9.687270e-01	9.817067e-01	9.967942e-01	1.012260e+00	1.026063e+00	1.036481e+00	1.042158e+00	1.043539e+00	1.040562e+00	1.029343e+00	1.012192e+00	9.984988e-01	9.921036e-01	9.902942e-01	9.900062e-01	9.900467e-01	9.901084e-01	9.901182e-01	9.900491e-01	9.899013e-01	9.896746e-01	9.893638e-01	9.889570e-01	9.884185e-01	9.877281e-01	9.868518e-01	9.857325e-01	9.842913e-01	9.824528e-01	9.801905e-01	9.776014e-01	9.749741e-01	9.727648e-01	9.713009e-01	9.708921e-01	9.711949e-01	9.724204e-01	9.750238e-01	9.790901e-01	9.849970e-01	9.932944e-01	1.004192e+00	1.017413e+00	1.031683e+00	1.044514e+00	1.053305e+00	1.057163e+00	1.057713e+00	1.054305e+00	1.042503e+00	1.024393e+00	1.009469e+00	1.002539e+00	1.000560e+00	1.000136e+00	1.000042e+00	1.000014e+00	1.000005e+00	1.000001e+00	1.000000e+00	1.000000e+00	1.000000e+00	1.000000e+00	1.000000e+00	1.000000e+00	1.000000e+00	1.000000e+00	1.000000e+00	1.000000e+00	1.000000e+00	1.000000e+00	1.000000e+00	1.000000e+00	1.000000e+00	1.000000e+00	1.000000e+00	1.000000e+00	1.000000e+00	1.000000e+00	1.000000e+00	1.000000e+00	1.000000e+00	1.000000e+00	1.000000e+00	1.000000e+00	1.000000e+00	1.000000e+00	1.000000e+00	1.000000e+00	1.000000e+00	1.000000e+00	1.000000e+00	1.000000e+00	1.000000e+00	1.000000e+00	1.000000e+00	1.000000e+00	9.499863e-01	9.517875e-01	9.554632e-01	9.626115e-01	9.725165e-01	9.842943e-01	9.970890e-01	1.010407e+00	1.022954e+00	1.032623e+00	1.037168e+00	1.038173e+00	1.035210e+00	1.025788e+00	1.013630e+00	1.002162e+00	9.941419e-01	9.906354e-01	9.897066e-01	9.895741e-01	9.895863e-01	9.895781e-01	9.895016e-01	9.893364e-01	9.890736e-01	9.887045e-01	9.882182e-01	9.875909e-01	9.868086e-01	9.858591e-01	9.847273e-01	9.834173e-01	9.819780e-01	9.805097e-01	9.790438e-01	9.774270e-01	9.754695e-01	9.736736e-01	9.726625e-01	9.726620e-01	9.738353e-01	9.768428e-01	9.813811e-01	9.874430e-01	9.954720e-01	1.005615e+00	1.017277e+00	1.029569e+00	1.041056e+00	1.049376e+00	1.053144e+00	1.053310e+00	1.049755e+00	1.039587e+00	1.026567e+00	1.014268e+00	1.005262e+00	1.001275e+00	1.000258e+00	1.000062e+00	1.000019e+00	1.000006e+00	1.000002e+00	1.000000e+00	1.000000e+00	1.000000e+00	1.000000e+00	1.000000e+00	1.000000e+00	1.000000e+00	1.000000e+00	1.000000e+00	1.000000e+00	1.000000e+00	1.000000e+00	1.000000e+00	1.000000e+00	1.000000e+00	1.000000e+00	1.000000e+00	1.000000e+00	1.000000e+00	1.000000e+00	1.000000e+00	1.000000e+00	1.000000e+00	1.000000e+00	1.000000e+00	1.000000e+00	1.000000e+00	1.000000e+00	1.000000e+00	1.000000e+00	1.000000e+00	1.000000e+00	1.000000e+00	1.000000e+00	1.000000e+00	1.000000e+00	1.000000e+00	1.000000e+00	9.566778e-01	9.585721e-01	9.626115e-01	9.696753e-01	9.784639e-01	9.881914e-01	9.984541e-01	1.009047e+00	1.019372e+00	1.027022e+00	1.029839e+00	1.030037e+00	1.026619e+00	1.019648e+00	1.012352e+00	1.004570e+00	9.964312e-01	9.908980e-01	9.888180e-01	9.883518e-01	9.882762e-01	9.882332e-01	9.881334e-01	9.879359e-01	9.876167e-01	9.871720e-01	9.865981e-01	9.858908e-01	9.850661e-01	9.841524e-01	9.831997e-01	9.822533e-01	9.813813e-01	9.805917e-01	9.798148e-01	9.788904e-01	9.778793e-01	9.768030e-01	9.760438e-01	9.761008e-01	9.772975e-01	9.805098e-01	9.854454e-01	9.919689e-01	1.000045e+00	1.009351e+00	1.019046e+00	1.028460e+00	1.037621e+00	1.045294e+00	1.047989e+00	1.047386e+00	1.042785e+00	1.034462e+00	1.026545e+00	1.018482e+00	1.009506e+00	1.002985e+00	1.000612e+00	1.000118e+00	1.000030e+00	1.000010e+00	1.000003e+00	1.000001e+00	1.000000e+00	1.000000e+00	1.000000e+00	1.000000e+00	1.000000e+00	1.000000e+00	1.000000e+00	1.000000e+00	1.000000e+00	1.000000e+00	1.000000e+00	1.000000e+00	1.000000e+00	1.000000e+00	1.000000e+00	1.000000e+00	1.000000e+00	1.000000e+00	1.000000e+00	1.000000e+00	1.000000e+00	1.000000e+00	1.000000e+00	1.000000e+00	1.000000e+00	1.000000e+00	1.000000e+00	1.000000e+00	1.000000e+00	1.000000e+00	1.000000e+00	1.000000e+00	1.000000e+00	1.000000e+00	1.000000e+00	1.000000e+00	1.000000e+00	9.667734e-01	9.687270e-01	9.725165e-01	9.784639e-01	9.852274e-01	9.924380e-01	9.999702e-01	1.007510e+00	1.014719e+00	1.019908e+00	1.021806e+00	1.021539e+00	1.018559e+00	1.014540e+00	1.010997e+00	1.006410e+00	9.991677e-01	9.916974e-01	9.879449e-01	9.868143e-01	9.865562e-01	9.864520e-01	9.863235e-01	9.861097e-01	9.857863e-01	9.853552e-01	9.848300e-01	9.842414e-01	9.836333e-01	9.830522e-01	9.825195e-01	9.820234e-01	9.815340e-01	9.810306e-01	9.805841e-01	9.804184e-01	9.804235e-01	9.804385e-01	9.805600e-01	9.810198e-01	9.826426e-01	9.861461e-01	9.913863e-01	9.979814e-01	1.005402e+00	1.012823e+00	1.019729e+00	1.026343e+00	1.033365e+00	1.038928e+00	1.040650e+00	1.039697e+00	1.035489e+00	1.030139e+00	1.026200e+00	1.021824e+00	1.014419e+00	1.006019e+00	1.001481e+00	1.000273e+00	1.000056e+00	1.000016e+00	1.000005e+00	1.000002e+00	1.000000e+00	1.000000e+00	1.000000e+00	1.000000e+00	1.000000e+00	1.000000e+00	1.000000e+00	1.000000e+00	1.000000e+00	1.000000e+00	1.000000e+00	1.000000e+00	1.000000e+00	1.000000e+00	1.000000e+00	1.000000e+00	1.000000e+00	1.000000e+00	1.000000e+00	1.000000e+00	1.000000e+00	1.000000e+00	1.000000e+00	1.000000e+00	1.000000e+00	1.000000e+00	1.000000e+00	1.000000e+00	1.000000e+00	1.000000e+00	1.000000e+00	1.000000e+00	1.000000e+00	1.000000e+00	1.000000e+00	1.000000e+00	1.000000e+00	9.801870e-01	9.817067e-01	9.842943e-01	9.881914e-01	9.924380e-01	9.968654e-01	1.001413e+00	1.005741e+00	1.009346e+00	1.011701e+00	1.013061e+00	1.013152e+00	1.012230e+00	1.011010e+00	1.009898e+00	1.007664e+00	1.002090e+00	9.940289e-01	9.879395e-01	9.856206e-01	9.850177e-01	9.848275e-01	9.847068e-01	9.845621e-01	9.843685e-01	9.841189e-01	9.838278e-01	9.835208e-01	9.832206e-01	9.829225e-01	9.826121e-01	9.822648e-01	9.819277e-01	9.817822e-01	9.819826e-01	9.825221e-01	9.834915e-01	9.847272e-01	9.860501e-01	9.875556e-01	9.897973e-01	9.934060e-01	9.985943e-01	1.004611e+00	1.010271e+00	1.014979e+00	1.019220e+00	1.023857e+00	1.028046e+00	1.030442e+00	1.031348e+00	1.030793e+00	1.029117e+00	1.027265e+00	1.025970e+00	1.023945e+00	1.018616e+00	1.009943e+00	1.003138e+00	1.000641e+00	1.000118e+00	1.000027e+00	1.000008e+00	1.000003e+00	1.000001e+00	1.000000e+00	1.000000e+00	1.000000e+00	1.000000e+00	1.000000e+00	1.000000e+00	1.000000e+00	1.000000e+00	1.000000e+00	1.000000e+00	1.000000e+00	1.000000e+00	1.000000e+00	1.000000e+00	1.000000e+00	1.000000e+00	1.000000e+00	1.000000e+00	1.000000e+00	1.000000e+00	1.000000e+00	1.000000e+00	1.000000e+00	1.000000e+00	1.000000e+00	1.000000e+00	1.000000e+00	1.000000e+00	1.000000e+00	1.000000e+00	1.000000e+00	1.000000e+00	1.000000e+00	1.000000e+00	1.000000e+00	1.000000e+00	9.960171e-01	9.967942e-01	9.970890e-01	9.984541e-01	9.999702e-01	1.001413e+00	1.002464e+00	1.003218e+00	1.003384e+00	1.003406e+00	1.004137e+00	1.006299e+00	1.008239e+00	1.008857e+00	1.009176e+00	1.008272e+00	1.004574e+00	9.971406e-01	9.897152e-01	9.858623e-01	9.846135e-01	9.842634e-01	9.841494e-01	9.840852e-01	9.840126e-01	9.839044e-01	9.837484e-01	9.835573e-01	9.833474e-01	9.831448e-01	9.829672e-01	9.829006e-01	9.830567e-01	9.835028e-01	9.844003e-01	9.857652e-01	9.876338e-01	9.899473e-01	9.925382e-01	9.952917e-01	9.983073e-01	1.001953e+00	1.006236e+00	1.010362e+00	1.013392e+00	1.015580e+00	1.017982e+00	1.020248e+00	1.020859e+00	1.020621e+00	1.020675e+00	1.022409e+00	1.024913e+00	1.025722e+00	1.025764e+00	1.024949e+00	1.021546e+00	1.013919e+00	1.005645e+00	1.001391e+00	1.000258e+00	1.000050e+00	1.000013e+00	1.000004e+00	1.000001e+00	1.000000e+00	1.000000e+00	1.000000e+00	1.000000e+00	1.000000e+00	1.000000e+00	1.000000e+00	1.000000e+00	1.000000e+00	1.000000e+00	1.000000e+00	1.000000e+00	1.000000e+00	1.000000e+00	1.000000e+00	1.000000e+00	1.000000e+00	1.000000e+00	1.000000e+00	1.000000e+00	1.000000e+00	1.000000e+00	1.000000e+00	1.000000e+00	1.000000e+00	1.000000e+00	1.000000e+00	1.000000e+00	1.000000e+00	1.000000e+00	1.000000e+00	1.000000e+00	1.000000e+00	1.000000e+00	1.000000e+00	1.000000e+00	1.012132e+00	1.012260e+00	1.010407e+00	1.009047e+00	1.007510e+00	1.005741e+00	1.003218e+00	9.999736e-01	9.975629e-01	9.965520e-01	9.973594e-01	1.001426e+00	1.006032e+00	1.008122e+00	1.008789e+00	1.008838e+00	1.006571e+00	1.000324e+00	9.923624e-01	9.870507e-01	9.850312e-01	9.844422e-01	9.842611e-01	9.841812e-01	9.841216e-01	9.840541e-01	9.839704e-01	9.838864e-01	9.838605e-01	9.839343e-01	9.841696e-01	9.846145e-01	9.854222e-01	9.866202e-01	9.882669e-01	9.904277e-01	9.931351e-01	9.963543e-01	9.999858e-01	1.003770e+00	1.007306e+00	1.010298e+00	1.012569e+00	1.013940e+00	1.014624e+00	1.015296e+00	1.015492e+00	1.014256e+00	1.011790e+00	1.010488e+00	1.011125e+00	1.015952e+00	1.022123e+00	1.024940e+00	1.025492e+00	1.025328e+00	1.023248e+00	1.017259e+00	1.008709e+00	1.002671e+00	1.000547e+00	1.000100e+00	1.000022e+00	1.000006e+00	1.000002e+00	1.000001e+00	1.000000e+00	1.000000e+00	1.000000e+00	1.000000e+00	1.000000e+00	1.000000e+00	1.000000e+00	1.000000e+00	1.000000e+00	1.000000e+00	1.000000e+00	1.000000e+00	1.000000e+00	1.000000e+00	1.000000e+00	1.000000e+00	1.000000e+00	1.000000e+00	1.000000e+00	1.000000e+00	1.000000e+00	1.000000e+00	1.000000e+00	1.000000e+00	1.000000e+00	1.000000e+00	1.000000e+00	1.000000e+00	1.000000e+00	1.000000e+00	1.000000e+00	1.000000e+00	1.000000e+00	1.000000e+00	1.000000e+00	1.026220e+00	1.026063e+00	1.022954e+00	1.019372e+00	1.014719e+00	1.009346e+00	1.003384e+00	9.975629e-01	9.940366e-01	9.926707e-01	9.938297e-01	9.988061e-01	1.004967e+00	1.008511e+00	1.009598e+00	1.009848e+00	1.008335e+00	1.003427e+00	9.957444e-01	9.891132e-01	9.859984e-01	9.850362e-01	9.847796e-01	9.847121e-01	9.847187e-01	9.847751e-01	9.848976e-01	9.851219e-01	9.854644e-01	9.859990e-01	9.867958e-01	9.879085e-01	9.893924e-01	9.912957e-01	9.936709e-01	9.965576e-01	9.999757e-01	1.003886e+00	1.008109e+00	1.012132e+00	1.015096e+00	1.016378e+00	1.016402e+00	1.015506e+00	1.014783e+00	1.013747e+00	1.010634e+00	1.005742e+00	1.002364e+00	1.001579e+00	1.004231e+00	1.011846e+00	1.019840e+00	1.024134e+00	1.025185e+00	1.025276e+00	1.024046e+00	1.019730e+00	1.011844e+00	1.004487e+00	1.001070e+00	1.000197e+00	1.000038e+00	1.000009e+00	1.000003e+00	1.000001e+00	1.000000e+00	1.000000e+00	1.000000e+00	1.000000e+00	1.000000e+00	1.000000e+00	1.000000e+00	1.000000e+00	1.000000e+00	1.000000e+00	1.000000e+00	1.000000e+00	1.000000e+00	1.000000e+00	1.000000e+00	1.000000e+00	1.000000e+00	1.000000e+00	1.000000e+00	1.000000e+00	1.000000e+00	1.000000e+00	1.000000e+00	1.000000e+00	1.000000e+00	1.000000e+00	1.000000e+00	1.000000e+00	1.000000e+00	1.000000e+00	1.000000e+00	1.000000e+00	1.000000e+00	1.000000e+00	1.000000e+00	1.036773e+00	1.036481e+00	1.032623e+00	1.027022e+00	1.019908e+00	1.011701e+00	1.003406e+00	9.965520e-01	9.926707e-01	9.911412e-01	9.928329e-01	9.987213e-01	1.006115e+00	1.010587e+00	1.011635e+00	1.011718e+00	1.010642e+00	1.006907e+00	1.000001e+00	9.925232e-01	9.881344e-01	9.866732e-01	9.863673e-01	9.863757e-01	9.865280e-01	9.868188e-01	9.872461e-01	9.878779e-01	9.887101e-01	9.897822e-01	9.911516e-01	9.928661e-01	9.949669e-01	9.974978e-01	1.000492e+00	1.003953e+00	1.007837e+00	1.011977e+00	1.015874e+00	1.018680e+00	1.019856e+00	1.019704e+00	1.018100e+00	1.015991e+00	1.013487e+00	1.009078e+00	1.002504e+00	9.969646e-01	9.948897e-01	9.953666e-01	1.000384e+00	1.009022e+00	1.017524e+00	1.022972e+00	1.024759e+00	1.024991e+00	1.024388e+00	1.021378e+00	1.014649e+00	1.006677e+00	1.001887e+00	1.000374e+00	1.000068e+00	1.000015e+00	1.000004e+00	1.000001e+00	1.000000e+00	1.000000e+00	1.000000e+00	1.000000e+00	1.000000e+00	1.000000e+00	1.000000e+00	1.000000e+00	1.000000e+00	1.000000e+00	1.000000e+00	1.000000e+00	1.000000e+00	1.000000e+00	1.000000e+00	1.000000e+00	1.000000e+00	1.000000e+00	1.000000e+00	1.000000e+00	1.000000e+00	1.000000e+00	1.000000e+00	1.000000e+00	1.000000e+00	1.000000e+00	1.000000e+00	1.000000e+00	1.000000e+00	1.000000e+00	1.000000e+00	1.000000e+00	1.000000e+00	1.000000e+00	1.000000e+00	1.043311e+00	1.042158e+00	1.037168e+00	1.029839e+00	1.021806e+00	1.013061e+00	1.004137e+00	9.973594e-01	9.938297e-01	9.928329e-01	9.960024e-01	1.002231e+00	1.009043e+00	1.013968e+00	1.015255e+00	1.015139e+00	1.014298e+00	1.011408e+00	1.005464e+00	9.977430e-01	9.921017e-01	9.899955e-01	9.896641e-01	9.897872e-01	9.901041e-01	9.906013e-01	9.913934e-01	9.924466e-01	9.937280e-01	9.952747e-01	9.971395e-01	9.993616e-01	1.001971e+00	1.004979e+00	1.008356e+00	1.011997e+00	1.015651e+00	1.018862e+00	1.021032e+00	1.021879e+00	1.021763e+00	1.020789e+00	1.018551e+00	1.014622e+00	1.008524e+00	1.000765e+00	9.940897e-01	9.907887e-01	9.902088e-01	9.922463e-01	9.983312e-01	1.006630e+00	1.015080e+00	1.021461e+00	1.024192e+00	1.024658e+00	1.024459e+00	1.022410e+00	1.016924e+00	1.008983e+00	1.002999e+00	1.000662e+00	1.000120e+00	1.000023e+00	1.000006e+00	1.000002e+00	1.000000e+00	1.000000e+00	1.000000e+00	1.000000e+00	1.000000e+00	1.000000e+00	1.000000e+00	1.000000e+00	1.000000e+00	1.000000e+00	1.000000e+00	1.000000e+00	1.000000e+00	1.000000e+00	1.000000e+00	1.000000e+00	1.000000e+00	1.000000e+00	1.000000e+00	1.000000e+00	1.000000e+00	1.000000e+00	1.000000e+00	1.000000e+00	1.000000e+00	1.000000e+00	1.000000e+00	1.000000e+00	1.000000e+00	1.000000e+00	1.000000e+00	1.000000e+00	1.000000e+00	1.000000e+00	1.000000e+00	1.045538e+00	1.043539e+00	1.038173e+00	1.030037e+00	1.021539e+00	1.013152e+00	1.006299e+00	1.001426e+00	9.988061e-01	9.987213e-01	1.002231e+00	1.007410e+00	1.013234e+00	1.018567e+00	1.020617e+00	1.020360e+00	1.019603e+00	1.017277e+00	1.012270e+00	1.004794e+00	9.982046e-01	9.952659e-01	9.948606e-01	9.950742e-01	9.954790e-01	9.961997e-01	9.973041e-01	9.986970e-01	1.000337e+00	1.002259e+00	1.004497e+00	1.007051e+00	1.009894e+00	1.012935e+00	1.015998e+00	1.018788e+00	1.020926e+00	1.022235e+00	1.022683e+00	1.022644e+00	1.022284e+00	1.020739e+00	1.016576e+00	1.008985e+00	9.998148e-01	9.925674e-01	9.888508e-01	9.877595e-01	9.880746e-01	9.910485e-01	9.968493e-01	1.004387e+00	1.012633e+00	1.019745e+00	1.023485e+00	1.024338e+00	1.024342e+00	1.022988e+00	1.018637e+00	1.011170e+00	1.004335e+00	1.001080e+00	1.000204e+00	1.000038e+00	1.000008e+00	1.000002e+00	1.000001e+00	1.000000e+00	1.000000e+00	1.000000e+00	1.000000e+00	1.000000e+00	1.000000e+00	1.000000e+00	1.000000e+00	1.000000e+00	1.000000e+00	1.000000e+00	1.000000e+00	1.000000e+00	1.000000e+00	1.000000e+00	1.000000e+00	1.000000e+00	1.000000e+00	1.000000e+00	1.000000e+00	1.000000e+00	1.000000e+00	1.000000e+00	1.000000e+00	1.000000e+00	1.000000e+00	1.000000e+00	1.000000e+00	1.000000e+00	1.000000e+00	1.000000e+00	1.000000e+00	1.000000e+00	1.000000e+00	1.043010e+00	1.040562e+00	1.035210e+00	1.026619e+00	1.018559e+00	1.012230e+00	1.008239e+00	1.006032e+00	1.004967e+00	1.006115e+00	1.009043e+00	1.013234e+00	1.018541e+00	1.024112e+00	1.027221e+00	1.027141e+00	1.026378e+00	1.024467e+00	1.020267e+00	1.013333e+00	1.006204e+00	1.002396e+00	1.001708e+00	1.001937e+00	1.002411e+00	1.003306e+00	1.004615e+00	1.006219e+00	1.008059e+00	1.010124e+00	1.012379e+00	1.014742e+00	1.017073e+00	1.019197e+00	1.020902e+00	1.022069e+00	1.022680e+00	1.022949e+00	1.022972e+00	1.022612e+00	1.021317e+00	1.017503e+00	1.009828e+00	9.999766e-01	9.920746e-01	9.881414e-01	9.868455e-01	9.866675e-01	9.875210e-01	9.904403e-01	9.955008e-01	1.002317e+00	1.010352e+00	1.017982e+00	1.022666e+00	1.024017e+00	1.024158e+00	1.023318e+00	1.019862e+00	1.013092e+00	1.005778e+00	1.001625e+00	1.000326e+00	1.000059e+00	1.000012e+00	1.000003e+00	1.000001e+00	1.000000e+00	1.000000e+00	1.000000e+00	1.000000e+00	1.000000e+00	1.000000e+00	1.000000e+00	1.000000e+00	1.000000e+00	1.000000e+00	1.000000e+00	1.000000e+00	1.000000e+00	1.000000e+00	1.000000e+00	1.000000e+00	1.000000e+00	1.000000e+00	1.000000e+00	1.000000e+00	1.000000e+00	1.000000e+00	1.000000e+00	1.000000e+00	1.000000e+00	1.000000e+00	1.000000e+00	1.000000e+00	1.000000e+00	1.000000e+00	1.000000e+00	1.000000e+00	1.000000e+00	1.000000e+00	1.031030e+00	1.029343e+00	1.025788e+00	1.019648e+00	1.014540e+00	1.011010e+00	1.008857e+00	1.008122e+00	1.008511e+00	1.010587e+00	1.013968e+00	1.018567e+00	1.024112e+00	1.029904e+00	1.033985e+00	1.034518e+00	1.033796e+00	1.032304e+00	1.028850e+00	1.022603e+00	1.015323e+00	1.010711e+00	1.009509e+00	1.009656e+00	1.010139e+00	1.011057e+00	1.012340e+00	1.013843e+00	1.015446e+00	1.017062e+00	1.018602e+00	1.019966e+00	1.021080e+00	1.021893e+00	1.022415e+00	1.022755e+00	1.022987e+00	1.022857e+00	1.022274e+00	1.020528e+00	1.016321e+00	1.009125e+00	1.000522e+00	9.931743e-01	9.887500e-01	9.869454e-01	9.865202e-01	9.865558e-01	9.874518e-01	9.899252e-01	9.942578e-01	1.000524e+00	1.008351e+00	1.016289e+00	1.021769e+00	1.023687e+00	1.023951e+00	1.023450e+00	1.020734e+00	1.014677e+00	1.007209e+00	1.002266e+00	1.000489e+00	1.000089e+00	1.000017e+00	1.000004e+00	1.000001e+00	1.000000e+00	1.000000e+00	1.000000e+00	1.000000e+00	1.000000e+00	1.000000e+00	1.000000e+00	1.000000e+00	1.000000e+00	1.000000e+00	1.000000e+00	1.000000e+00	1.000000e+00	1.000000e+00	1.000000e+00	1.000000e+00	1.000000e+00	1.000000e+00	1.000000e+00	1.000000e+00	1.000000e+00	1.000000e+00	1.000000e+00	1.000000e+00	1.000000e+00	1.000000e+00	1.000000e+00	1.000000e+00	1.000000e+00	1.000000e+00	1.000000e+00	1.000000e+00	1.000000e+00	1.000000e+00	1.013385e+00	1.012192e+00	1.013630e+00	1.012352e+00	1.010997e+00	1.009898e+00	1.009176e+00	1.008789e+00	1.009598e+00	1.011635e+00	1.015255e+00	1.020617e+00	1.027221e+00	1.033985e+00	1.039228e+00	1.040851e+00	1.040317e+00	1.039159e+00	1.036401e+00	1.030925e+00	1.023755e+00	1.018452e+00	1.016606e+00	1.016539e+00	1.016810e+00	1.017435e+00	1.018281e+00	1.019177e+00	1.019999e+00	1.020702e+00	1.021274e+00	1.021723e+00	1.022094e+00	1.022404e+00	1.022676e+00	1.022674e+00	1.022265e+00	1.021135e+00	1.018499e+00	1.013650e+00	1.006869e+00	1.000021e+00	9.947046e-01	9.909841e-01	9.883104e-01	9.869323e-01	9.866457e-01	9.867109e-01	9.874357e-01	9.894243e-01	9.932083e-01	9.990608e-01	1.006662e+00	1.014743e+00	1.020849e+00	1.023348e+00	1.023747e+00	1.023477e+00	1.021302e+00	1.015935e+00	1.008528e+00	1.002955e+00	1.000687e+00	1.000127e+00	1.000024e+00	1.000005e+00	1.000001e+00	1.000000e+00	1.000000e+00	1.000000e+00	1.000000e+00	1.000000e+00	1.000000e+00	1.000000e+00	1.000000e+00	1.000000e+00	1.000000e+00	1.000000e+00	1.000000e+00	1.000000e+00	1.000000e+00	1.000000e+00	1.000000e+00	1.000000e+00	1.000000e+00	1.000000e+00	1.000000e+00	1.000000e+00	1.000000e+00	1.000000e+00	1.000000e+00	1.000000e+00	1.000000e+00	1.000000e+00	1.000000e+00	1.000000e+00	1.000000e+00	1.000000e+00	1.000000e+00	1.000000e+00	1.000000e+00	9.995375e-01	9.984988e-01	1.002162e+00	1.004570e+00	1.006410e+00	1.007664e+00	1.008272e+00	1.008838e+00	1.009848e+00	1.011718e+00	1.015139e+00	1.020360e+00	1.027141e+00	1.034518e+00	1.040851e+00	1.043928e+00	1.044018e+00	1.043338e+00	1.041156