# vtk DataFile Version 3.0
vtk output
ASCII
DATASET STRUCTURED_GRID
DIMENSIONS 101 101 1
POINTS 10201 double
0.000000e+00	0.000000e+00	0.0	1.000000e-02	0.000000e+00	0.0	2.000000e-02	0.000000e+00	0.0	3.000000e-02	0.000000e+00	0.0	4.000000e-02	0.000000e+00	0.0	5.000000e-02	0.000000e+00	0.0	6.000000e-02	0.000000e+00	0.0	7.000000e-02	0.000000e+00	0.0	8.000000e-02	0.000000e+00	0.0	9.000000e-02	0.000000e+00	0.0	1.000000e-01	0.000000e+00	0.0	1.100000e-01	0.000000e+00	0.0	1.200000e-01	0.000000e+00	0.0	1.300000e-01	0.000000e+00	0.0	1.400000e-01	0.000000e+00	0.0	1.500000e-01	0.000000e+00	0.0	1.600000e-01	0.000000e+00	0.0	1.700000e-01	0.000000e+00	0.0	1.800000e-01	0.000000e+00	0.0	1.900000e-01	0.000000e+00	0.0	2.000000e-01	0.000000e+00	0.0	2.100000e-01	0.000000e+00	0.0	2.200000e-01	0.000000e+00	0.0	2.300000e-01	0.000000e+00	0.0	2.400000e-01	0.000000e+00	0.0	2.500000e-01	0.000000e+00	0.0	2.600000e-01	0.000000e+00	0.0	2.700000e-01	0.000000e+00	0.0	2.800000e-01	0.000000e+00	0.0	2.900000e-01	0.000000e+00	0.0	3.000000e-01	0.000000e+00	0.0	3.100000e-01	0.000000e+00	0.0	3.200000e-01	0.000000e+00	0.0	3.300000e-01	0.000000e+00	0.0	3.400000e-01	0.000000e+00	0.0	3.500000e-01	0.000000e+00	0.0	3.600000e-01	0.000000e+00	0.0	3.700000e-01	0.000000e+00	0.0	3.800000e-01	0.000000e+00	0.0	3.900000e-01	0.000000e+00	0.0	4.000000e-01	0.000000e+00	0.0	4.100000e-01	0.000000e+00	0.0	4.200000e-01	0.000000e+00	0.0	4.300000e-01	0.000000e+00	0.0	4.400000e-01	0.000000e+00	0.0	4.500000e-01	0.000000e+00	0.0	4.600000e-01	0.000000e+00	0.0	4.700000e-01	0.000000e+00	0.0	4.800000e-01	0.000000e+00	0.0	4.900000e-01	0.000000e+00	0.0	5.000000e-01	0.000000e+00	0.0	5.100000e-01	0.000000e+00	0.0	5.200000e-01	0.000000e+00	0.0	5.300000e-01	0.000000e+00	0.0	5.400000e-01	0.000000e+00	0.0	5.500000e-01	0.000000e+00	0.0	5.600000e-01	0.000000e+00	0.0	5.700000e-01	0.000000e+00	0.0	5.800000e-01	0.000000e+00	0.0	5.900000e-01	0.000000e+00	0.0	6.000000e-01	0.000000e+00	0.0	6.100000e-01	0.000000e+00	0.0	6.200000e-01	0.000000e+00	0.0	6.300000e-01	0.000000e+00	0.0	6.400000e-01	0.000000e+00	0.0	6.500000e-01	0.000000e+00	0.0	6.600000e-01	0.000000e+00	0.0	6.700000e-01	0.000000e+00	0.0	6.800000e-01	0.000000e+00	0.0	6.900000e-01	0.000000e+00	0.0	7.000000e-01	0.000000e+00	0.0	7.100000e-01	0.000000e+00	0.0	7.200000e-01	0.000000e+00	0.0	7.300000e-01	0.000000e+00	0.0	7.400000e-01	0.000000e+00	0.0	7.500000e-01	0.000000e+00	0.0	7.600000e-01	0.000000e+00	0.0	7.700000e-01	0.000000e+00	0.0	7.800000e-01	0.000000e+00	0.0	7.900000e-01	0.000000e+00	0.0	8.000000e-01	0.000000e+00	0.0	8.100000e-01	0.000000e+00	0.0	8.200000e-01	0.000000e+00	0.0	8.300000e-01	0.000000e+00	0.0	8.400000e-01	0.000000e+00	0.0	8.500000e-01	0.000000e+00	0.0	8.600000e-01	0.000000e+00	0.0	8.700000e-01	0.000000e+00	0.0	8.800000e-01	0.000000e+00	0.0	8.900000e-01	0.000000e+00	0.0	9.000000e-01	0.000000e+00	0.0	9.100000e-01	0.000000e+00	0.0	9.200000e-01	0.000000e+00	0.0	9.300000e-01	0.000000e+00	0.0	9.400000e-01	0.000000e+00	0.0	9.500000e-01	0.000000e+00	0.0	9.600000e-01	0.000000e+00	0.0	9.700000e-01	0.000000e+00	0.0	9.800000e-01	0.000000e+00	0.0	9.900000e-01	0.000000e+00	0.0	1.000000e+00	0.000000e+00	0.0	0.000000e+00	1.000000e-02	0.0	1.000000e-02	1.000000e-02	0.0	2.000000e-02	1.000000e-02	0.0	3.000000e-02	1.000000e-02	0.0	4.000000e-02	1.000000e-02	0.0	5.000000e-02	1.000000e-02	0.0	6.000000e-02	1.000000e-02	0.0	7.000000e-02	1.000000e-02	0.0	8.000000e-02	1.000000e-02	0.0	9.000000e-02	1.000000e-02	0.0	1.000000e-01	1.000000e-02	0.0	1.100000e-01	1.000000e-02	0.0	1.200000e-01	1.000000e-02	0.0	1.300000e-01	1.000000e-02	0.0	1.400000e-01	1.000000e-02	0.0	1.500000e-01	1.000000e-02	0.0	1.600000e-01	1.000000e-02	0.0	1.700000e-01	1.000000e-02	0.0	1.800000e-01	1.000000e-02	0.0	1.900000e-01	1.000000e-02	0.0	2.000000e-01	1.000000e-02	0.0	2.100000e-01	1.000000e-02	0.0	2.200000e-01	1.000000e-02	0.0	2.300000e-01	1.000000e-02	0.0	2.400000e-01	1.000000e-02	0.0	2.500000e-01	1.000000e-02	0.0	2.600000e-01	1.000000e-02	0.0	2.700000e-01	1.000000e-02	0.0	2.800000e-01	1.000000e-02	0.0	2.900000e-01	1.000000e-02	0.0	3.000000e-01	1.000000e-02	0.0	3.100000e-01	1.000000e-02	0.0	3.200000e-01	1.000000e-02	0.0	3.300000e-01	1.000000e-02	0.0	3.400000e-01	1.000000e-02	0.0	3.500000e-01	1.000000e-02	0.0	3.600000e-01	1.000000e-02	0.0	3.700000e-01	1.000000e-02	0.0	3.800000e-01	1.000000e-02	0.0	3.900000e-01	1.000000e-02	0.0	4.000000e-01	1.000000e-02	0.0	4.100000e-01	1.000000e-02	0.0	4.200000e-01	1.000000e-02	0.0	4.300000e-01	1.000000e-02	0.0	4.400000e-01	1.000000e-02	0.0	4.500000e-01	1.000000e-02	0.0	4.600000e-01	1.000000e-02	0.0	4.700000e-01	1.000000e-02	0.0	4.800000e-01	1.000000e-02	0.0	4.900000e-01	1.000000e-02	0.0	5.000000e-01	1.000000e-02	0.0	5.100000e-01	1.000000e-02	0.0	5.200000e-01	1.000000e-02	0.0	5.300000e-01	1.000000e-02	0.0	5.400000e-01	1.000000e-02	0.0	5.500000e-01	1.000000e-02	0.0	5.600000e-01	1.000000e-02	0.0	5.700000e-01	1.000000e-02	0.0	5.800000e-01	1.000000e-02	0.0	5.900000e-01	1.000000e-02	0.0	6.000000e-01	1.000000e-02	0.0	6.100000e-01	1.000000e-02	0.0	6.200000e-01	1.000000e-02	0.0	6.300000e-01	1.000000e-02	0.0	6.400000e-01	1.000000e-02	0.0	6.500000e-01	1.000000e-02	0.0	6.600000e-01	1.000000e-02	0.0	6.700000e-01	1.000000e-02	0.0	6.800000e-01	1.000000e-02	0.0	6.900000e-01	1.000000e-02	0.0	7.000000e-01	1.000000e-02	0.0	7.100000e-01	1.000000e-02	0.0	7.200000e-01	1.000000e-02	0.0	7.300000e-01	1.000000e-02	0.0	7.400000e-01	1.000000e-02	0.0	7.500000e-01	1.000000e-02	0.0	7.600000e-01	1.000000e-02	0.0	7.700000e-01	1.000000e-02	0.0	7.800000e-01	1.000000e-02	0.0	7.900000e-01	1.000000e-02	0.0	8.000000e-01	1.000000e-02	0.0	8.100000e-01	1.000000e-02	0.0	8.200000e-01	1.000000e-02	0.0	8.300000e-01	1.000000e-02	0.0	8.400000e-01	1.000000e-02	0.0	8.500000e-01	1.000000e-02	0.0	8.600000e-01	1.000000e-02	0.0	8.700000e-01	1.000000e-02	0.0	8.800000e-01	1.000000e-02	0.0	8.900000e-01	1.000000e-02	0.0	9.000000e-01	1.000000e-02	0.0	9.100000e-01	1.000000e-02	0.0	9.200000e-01	1.000000e-02	0.0	9.300000e-01	1.000000e-02	0.0	9.400000e-01	1.000000e-02	0.0	9.500000e-01	1.000000e-02	0.0	9.600000e-01	1.000000e-02	0.0	9.700000e-01	1.000000e-02	0.0	9.800000e-01	1.000000e-02	0.0	9.900000e-01	1.000000e-02	0.0	1.000000e+00	1.000000e-02	0.0	0.000000e+00	2.000000e-02	0.0	1.000000e-02	2.000000e-02	0.0	2.000000e-02	2.000000e-02	0.0	3.000000e-02	2.000000e-02	0.0	4.000000e-02	2.000000e-02	0.0	5.000000e-02	2.000000e-02	0.0	6.000000e-02	2.000000e-02	0.0	7.000000e-02	2.000000e-02	0.0	8.000000e-02	2.000000e-02	0.0	9.000000e-02	2.000000e-02	0.0	1.000000e-01	2.000000e-02	0.0	1.100000e-01	2.000000e-02	0.0	1.200000e-01	2.000000e-02	0.0	1.300000e-01	2.000000e-02	0.0	1.400000e-01	2.000000e-02	0.0	1.500000e-01	2.000000e-02	0.0	1.600000e-01	2.000000e-02	0.0	1.700000e-01	2.000000e-02	0.0	1.800000e-01	2.000000e-02	0.0	1.900000e-01	2.000000e-02	0.0	2.000000e-01	2.000000e-02	0.0	2.100000e-01	2.000000e-02	0.0	2.200000e-01	2.000000e-02	0.0	2.300000e-01	2.000000e-02	0.0	2.400000e-01	2.000000e-02	0.0	2.500000e-01	2.000000e-02	0.0	2.600000e-01	2.000000e-02	0.0	2.700000e-01	2.000000e-02	0.0	2.800000e-01	2.000000e-02	0.0	2.900000e-01	2.000000e-02	0.0	3.000000e-01	2.000000e-02	0.0	3.100000e-01	2.000000e-02	0.0	3.200000e-01	2.000000e-02	0.0	3.300000e-01	2.000000e-02	0.0	3.400000e-01	2.000000e-02	0.0	3.500000e-01	2.000000e-02	0.0	3.600000e-01	2.000000e-02	0.0	3.700000e-01	2.000000e-02	0.0	3.800000e-01	2.000000e-02	0.0	3.900000e-01	2.000000e-02	0.0	4.000000e-01	2.000000e-02	0.0	4.100000e-01	2.000000e-02	0.0	4.200000e-01	2.000000e-02	0.0	4.300000e-01	2.000000e-02	0.0	4.400000e-01	2.000000e-02	0.0	4.500000e-01	2.000000e-02	0.0	4.600000e-01	2.000000e-02	0.0	4.700000e-01	2.000000e-02	0.0	4.800000e-01	2.000000e-02	0.0	4.900000e-01	2.000000e-02	0.0	5.000000e-01	2.000000e-02	0.0	5.100000e-01	2.000000e-02	0.0	5.200000e-01	2.000000e-02	0.0	5.300000e-01	2.000000e-02	0.0	5.400000e-01	2.000000e-02	0.0	5.500000e-01	2.000000e-02	0.0	5.600000e-01	2.000000e-02	0.0	5.700000e-01	2.000000e-02	0.0	5.800000e-01	2.000000e-02	0.0	5.900000e-01	2.000000e-02	0.0	6.000000e-01	2.000000e-02	0.0	6.100000e-01	2.000000e-02	0.0	6.200000e-01	2.000000e-02	0.0	6.300000e-01	2.000000e-02	0.0	6.400000e-01	2.000000e-02	0.0	6.500000e-01	2.000000e-02	0.0	6.600000e-01	2.000000e-02	0.0	6.700000e-01	2.000000e-02	0.0	6.800000e-01	2.000000e-02	0.0	6.900000e-01	2.000000e-02	0.0	7.000000e-01	2.000000e-02	0.0	7.100000e-01	2.000000e-02	0.0	7.200000e-01	2.000000e-02	0.0	7.300000e-01	2.000000e-02	0.0	7.400000e-01	2.000000e-02	0.0	7.500000e-01	2.000000e-02	0.0	7.600000e-01	2.000000e-02	0.0	7.700000e-01	2.000000e-02	0.0	7.800000e-01	2.000000e-02	0.0	7.900000e-01	2.000000e-02	0.0	8.000000e-01	2.000000e-02	0.0	8.100000e-01	2.000000e-02	0.0	8.200000e-01	2.000000e-02	0.0	8.300000e-01	2.000000e-02	0.0	8.400000e-01	2.000000e-02	0.0	8.500000e-01	2.000000e-02	0.0	8.600000e-01	2.000000e-02	0.0	8.700000e-01	2.000000e-02	0.0	8.800000e-01	2.000000e-02	0.0	8.900000e-01	2.000000e-02	0.0	9.000000e-01	2.000000e-02	0.0	9.100000e-01	2.000000e-02	0.0	9.200000e-01	2.000000e-02	0.0	9.300000e-01	2.000000e-02	0.0	9.400000e-01	2.000000e-02	0.0	9.500000e-01	2.000000e-02	0.0	9.600000e-01	2.000000e-02	0.0	9.700000e-01	2.000000e-02	0.0	9.800000e-01	2.000000e-02	0.0	9.900000e-01	2.000000e-02	0.0	1.000000e+00	2.000000e-02	0.0	0.000000e+00	3.000000e-02	0.0	1.000000e-02	3.000000e-02	0.0	2.000000e-02	3.000000e-02	0.0	3.000000e-02	3.000000e-02	0.0	4.000000e-02	3.000000e-02	0.0	5.000000e-02	3.000000e-02	0.0	6.000000e-02	3.000000e-02	0.0	7.000000e-02	3.000000e-02	0.0	8.000000e-02	3.000000e-02	0.0	9.000000e-02	3.000000e-02	0.0	1.000000e-01	3.000000e-02	0.0	1.100000e-01	3.000000e-02	0.0	1.200000e-01	3.000000e-02	0.0	1.300000e-01	3.000000e-02	0.0	1.400000e-01	3.000000e-02	0.0	1.500000e-01	3.000000e-02	0.0	1.600000e-01	3.000000e-02	0.0	1.700000e-01	3.000000e-02	0.0	1.800000e-01	3.000000e-02	0.0	1.900000e-01	3.000000e-02	0.0	2.000000e-01	3.000000e-02	0.0	2.100000e-01	3.000000e-02	0.0	2.200000e-01	3.000000e-02	0.0	2.300000e-01	3.000000e-02	0.0	2.400000e-01	3.000000e-02	0.0	2.500000e-01	3.000000e-02	0.0	2.600000e-01	3.000000
[...]
POINT_DATA 10201

SCALARS Height double 1
LOOKUP_TABLE default
9.987869e-01	9.988127e-01	9.988035e-01	9.988006e-01	9.987987e-01	9.987950e-01	9.987892e-01	9.987813e-01	9.987735e-01	9.987682e-01	9.987632e-01	9.987602e-01	9.987589e-01	9.987585e-01	9.987573e-01	9.987530e-01	9.987451e-01	9.987321e-01	9.987194e-01	9.987043e-01	9.986896e-01	9.986701e-01	9.986503e-01	9.986288e-01	9.986096e-01	9.985907e-01	9.985707e-01	9.985504e-01	9.985283e-01	9.985048e-01	9.984794e-01	9.984519e-01	9.984219e-01	9.983892e-01	9.983533e-01	9.983146e-01	9.982730e-01	9.982282e-01	9.981799e-01	9.981278e-01	9.980715e-01	9.980100e-01	9.979431e-01	9.978702e-01	9.977908e-01	9.977039e-01	9.976078e-01	9.975010e-01	9.973814e-01	9.972479e-01	9.970991e-01	9.969330e-01	9.967456e-01	9.965271e-01	9.962583e-01	9.959059e-01	9.954189e-01	9.947288e-01	9.937637e-01	9.924947e-01	9.910075e-01	9.895406e-01	9.883926e-01	9.877161e-01	9.874452e-01	9.874448e-01	9.878891e-01	9.892876e-01	9.919229e-01	9.957152e-01	1.000395e+00	1.005600e+00	1.010920e+00	1.015806e+00	1.019615e+00	1.021964e+00	1.023095e+00	1.023724e+00	1.024128e+00	1.023954e+00	1.023671e+00	1.023713e+00	1.023638e+00	1.023058e+00	1.022349e+00	1.021049e+00	1.018443e+00	1.014342e+00	1.009226e+00	1.003737e+00	9.983841e-01	9.935904e-01	9.897267e-01	9.870266e-01	9.854931e-01	9.847928e-01	9.843825e-01	9.840766e-01	9.839358e-01	9.838673e-01	9.841564e-01	9.987933e-01	9.988267e-01	9.988036e-01	9.988021e-01	9.988017e-01	9.987978e-01	9.987917e-01	9.987840e-01	9.987776e-01	9.987712e-01	9.987651e-01	9.987609e-01	9.987587e-01	9.987575e-01	9.987551e-01	9.987493e-01	9.987391e-01	9.987239e-01	9.987071e-01	9.986895e-01	9.986735e-01	9.986555e-01	9.986377e-01	9.986200e-01	9.986021e-01	9.985868e-01	9.985693e-01	9.985493e-01	9.985278e-01	9.985045e-01	9.984794e-01	9.984520e-01	9.984221e-01	9.983895e-01	9.983538e-01	9.983150e-01	9.982731e-01	9.982279e-01	9.981790e-01	9.981262e-01	9.980690e-01	9.980066e-01	9.979387e-01	9.978650e-01	9.977847e-01	9.976968e-01	9.975998e-01	9.974921e-01	9.973718e-01	9.972375e-01	9.970880e-01	9.969211e-01	9.967327e-01	9.965129e-01	9.962424e-01	9.958883e-01	9.953996e-01	9.947083e-01	9.937435e-01	9.924738e-01	9.909788e-01	9.894858e-01	9.882899e-01	9.876038e-01	9.874075e-01	9.874318e-01	9.878743e-01	9.892415e-01	9.918587e-01	9.956686e-01	1.000377e+00	1.005613e+00	1.010955e+00	1.015888e+00	1.019825e+00	1.022242e+00	1.023091e+00	1.023524e+00	1.023949e+00	1.024216e+00	1.024249e+00	1.023949e+00	1.023443e+00	1.022867e+00	1.022376e+00	1.021339e+00	1.018631e+00	1.014406e+00	1.009254e+00	1.003741e+00	9.983575e-01	9.935385e-01	9.896562e-01	9.869732e-01	9.854639e-01	9.847679e-01	9.843277e-01	9.839631e-01	9.838488e-01	9.838065e-01	9.840868e-01	9.987956e-01	9.988349e-01	9.988058e-01	9.988070e-01	9.988070e-01	9.988037e-01	9.987975e-01	9.987893e-01	9.987823e-01	9.987748e-01	9.987679e-01	9.987627e-01	9.987594e-01	9.987572e-01	9.987541e-01	9.987473e-01	9.987373e-01	9.987217e-01	9.987064e-01	9.986907e-01	9.986742e-01	9.986545e-01	9.986385e-01	9.986173e-01	9.985993e-01	9.985807e-01	9.985648e-01	9.985454e-01	9.985246e-01	9.985019e-01	9.984773e-01	9.984507e-01	9.984217e-01	9.983898e-01	9.983550e-01	9.983172e-01	9.982761e-01	9.982313e-01	9.981827e-01	9.981298e-01	9.980726e-01	9.980106e-01	9.979432e-01	9.978702e-01	9.977903e-01	9.977028e-01	9.976061e-01	9.974987e-01	9.973789e-01	9.972452e-01	9.970959e-01	9.969288e-01	9.967387e-01	9.965154e-01	9.962395e-01	9.958783e-01	9.953810e-01	9.946822e-01	9.937180e-01	9.924653e-01	9.909984e-01	9.895147e-01	9.883128e-01	9.876737e-01	9.875264e-01	9.875719e-01	9.880387e-01	9.894027e-01	9.919783e-01	9.957568e-01	1.000420e+00	1.005589e+00	1.010855e+00	1.015788e+00	1.019812e+00	1.022122e+00	1.022789e+00	1.023167e+00	1.023677e+00	1.024364e+00	1.024719e+00	1.024096e+00	1.023179e+00	1.022515e+00	1.022076e+00	1.021246e+00	1.018601e+00	1.014286e+00	1.009150e+00	1.003721e+00	9.984099e-01	9.936331e-01	9.897905e-01	9.871320e-01	9.856144e-01	9.848818e-01	9.844180e-01	9.839947e-01	9.838406e-01	9.838094e-01	9.840846e-01	9.987869e-01	9.988293e-01	9.987991e-01	9.988019e-01	9.988029e-01	9.988003e-01	9.987949e-01	9.987875e-01	9.987798e-01	9.987732e-01	9.987672e-01	9.987629e-01	9.987603e-01	9.987586e-01	9.987555e-01	9.987489e-01	9.987379e-01	9.987212e-01	9.987057e-01	9.986911e-01	9.986749e-01	9.986554e-01	9.986386e-01	9.986182e-01	9.985997e-01	9.985822e-01	9.985648e-01	9.985454e-01	9.985243e-01	9.985015e-01	9.984766e-01	9.984493e-01	9.984197e-01	9.983877e-01	9.983530e-01	9.983152e-01	9.982739e-01	9.982286e-01	9.981791e-01	9.981252e-01	9.980669e-01	9.980041e-01	9.979363e-01	9.978626e-01	9.977824e-01	9.976943e-01	9.975970e-01	9.974892e-01	9.973691e-01	9.972354e-01	9.970858e-01	9.969174e-01	9.967245e-01	9.964961e-01	9.962121e-01	9.958398e-01	9.953281e-01	9.946132e-01	9.936371e-01	9.923867e-01	9.909270e-01	9.894409e-01	9.882714e-01	9.877300e-01	9.876330e-01	9.876961e-01	9.882042e-01	9.896063e-01	9.921986e-01	9.959524e-01	1.000584e+00	1.005684e+00	1.010904e+00	1.015887e+00	1.019905e+00	1.021976e+00	1.022514e+00	1.022868e+00	1.023437e+00	1.024331e+00	1.024816e+00	1.024074e+00	1.022962e+00	1.022235e+00	1.021809e+00	1.021114e+00	1.018693e+00	1.014363e+00	1.009186e+00	1.003816e+00	9.985740e-01	9.938295e-01	9.900004e-01	9.873189e-01	9.857494e-01	9.849650e-01	9.844703e-01	9.839799e-01	9.837271e-01	9.836600e-01	9.839246e-01	9.987792e-01	9.988256e-01	9.987957e-01	9.987998e-01	9.988006e-01	9.987980e-01	9.987932e-01	9.987861e-01	9.987797e-01	9.987738e-01	9.987680e-01	9.987633e-01	9.987598e-01	9.987571e-01	9.987532e-01	9.987455e-01	9.987338e-01	9.987173e-01	9.987005e-01	9.986866e-01	9.986711e-01	9.986521e-01	9.986354e-01	9.986153e-01	9.985969e-01	9.985799e-01	9.985619e-01	9.985424e-01	9.985213e-01	9.984984e-01	9.984732e-01	9.984458e-01	9.984159e-01	9.983837e-01	9.983490e-01	9.983112e-01	9.982699e-01	9.982244e-01	9.981744e-01	9.981198e-01	9.980608e-01	9.979974e-01	9.979291e-01	9.978550e-01	9.977744e-01	9.976858e-01	9.975881e-01	9.974798e-01	9.973596e-01	9.972255e-01	9.970751e-01	9.969047e-01	9.967079e-01	9.964726e-01	9.961783e-01	9.957905e-01	9.952594e-01	9.945233e-01	9.935318e-01	9.922752e-01	9.908093e-01	9.893364e-01	9.882651e-01	9.878442e-01	9.877839e-01	9.878680e-01	9.884259e-01	9.898798e-01	9.924996e-01	9.962390e-01	1.000807e+00	1.005831e+00	1.011041e+00	1.016054e+00	1.019917e+00	1.021736e+00	1.022181e+00	1.022542e+00	1.023167e+00	1.024178e+00	1.024726e+00	1.023941e+00	1.022729e+00	1.021934e+00	1.021484e+00	1.020881e+00	1.018715e+00	1.014512e+00	1.009306e+00	1.003959e+00	9.987910e-01	9.941070e-01	9.902879e-01	9.875765e-01	9.859416e-01	9.850890e-01	9.845474e-01	9.839875e-01	9.836092e-01	9.834519e-01	9.836805e-01	9.987719e-01	9.988191e-01	9.987925e-01	9.987971e-01	9.987974e-01	9.987945e-01	9.987901e-01	9.987838e-01	9.987776e-01	9.987723e-01	9.987671e-01	9.987626e-01	9.987586e-01	9.987549e-01	9.987500e-01	9.987414e-01	9.987286e-01	9.987124e-01	9.986951e-01	9.986816e-01	9.986668e-01	9.986487e-01	9.986319e-01	9.986128e-01	9.985945e-01	9.985784e-01	9.985601e-01	9.985406e-01	9.985194e-01	9.984965e-01	9.984712e-01	9.984435e-01	9.984134e-01	9.983806e-01	9.983452e-01	9.983068e-01	9.982649e-01	9.982188e-01	9.981682e-01	9.981130e-01	9.980532e-01	9.979888e-01	9.979197e-01	9.978448e-01	9.977635e-01	9.976742e-01	9.975758e-01	9.974670e-01	9.973460e-01	9.972110e-01	9.970589e-01	9.968854e-01	9.966834e-01	9.964400e-01	9.961324e-01	9.957251e-01	9.951698e-01	9.944100e-01	9.933984e-01	9.921187e-01	9.906372e-01	9.892150e-01	9.882974e-01	9.879921e-01	9.879506e-01	9.880756e-01	9.886990e-01	9.902266e-01	9.928855e-01	9.966010e-01	1.001088e+00	1.006061e+00	1.011283e+00	1.016248e+00	1.019857e+00	1.021438e+00	1.021822e+00	1.022203e+00	1.022868e+00	1.023895e+00	1.024446e+00	1.023691e+00	1.022469e+00	1.021618e+00	1.021129e+00	1.020598e+00	1.018674e+00	1.014699e+00	1.009528e+00	1.004178e+00	9.990655e-01	9.944535e-01	9.906519e-01	9.878985e-01	9.861812e-01	9.852352e-01	9.846337e-01	9.840067e-01	9.834855e-01	9.831886e-01	9.833476e-01	9.987663e-01	9.988091e-01	9.987892e-01	9.987930e-01	9.987930e-01	9.987903e-01	9.987866e-01	9.987815e-01	9.987759e-01	9.987710e-01	9.987662e-01	9.987615e-01	9.987571e-01	9.987523e-01	9.987460e-01	9.987361e-01	9.987226e-01	9.987062e-01	9.986896e-01	9.986755e-01	9.986609e-01	9.986440e-01	9.986264e-01	9.986083e-01	9.985902e-01	9.985743e-01	9.985566e-01	9.985373e-01	9.985164e-01	9.984929e-01	9.984677e-01	9.984397e-01	9.984092e-01	9.983757e-01	9.983394e-01	9.983002e-01	9.982575e-01	9.982109e-01	9.981600e-01	9.981044e-01	9.980439e-01	9.979788e-01	9.979088e-01	9.978333e-01	9.977514e-01	9.976617e-01	9.975627e-01	9.974531e-01	9.973309e-01	9.971940e-01	9.970392e-01	9.968616e-01	9.966530e-01	9.963994e-01	9.960751e-01	9.956449e-01	9.950586e-01	9.942662e-01	9.932253e-01	9.919148e-01	9.904245e-01	9.891060e-01	9.883694e-01	9.881618e-01	9.881453e-01	9.883224e-01	9.890316e-01	9.906493e-01	9.933503e-01	9.970322e-01	1.001442e+00	1.006378e+00	1.011598e+00	1.016426e+00	1.019731e+00	1.021077e+00	1.021427e+00	1.021840e+00	1.022532e+00	1.023505e+00	1.024013e+00	1.023342e+00	1.022175e+00	1.021278e+00	1.020737e+00	1.020252e+00	1.018575e+00	1.014886e+00	1.009826e+00	1.004475e+00	9.994087e-01	9.948653e-01	9.910857e-01	9.882844e-01	9.864681e-01	9.854074e-01	9.847255e-01	9.840380e-01	9.833621e-01	9.828842e-01	9.829366e-01	9.987607e-01	9.987981e-01	9.987841e-01	9.987871e-01	9.987861e-01	9.987841e-01	9.987816e-01	9.987781e-01	9.987737e-01	9.987697e-01	9.987653e-01	9.987606e-01	9.987556e-01	9.987500e-01	9.987427e-01	9.987321e-01	9.987178e-01	9.987013e-01	9.986842e-01	9.986706e-01	9.986559e-01	9.986391e-01	9.986207e-01	9.986032e-01	9.985860e-01	9.985700e-01	9.985521e-01	9.985327e-01	9.985112e-01	9.984880e-01	9.984623e-01	9.984342e-01	9.984032e-01	9.983691e-01	9.983319e-01	9.982918e-01	9.982481e-01	9.982008e-01	9.981493e-01	9.980931e-01	9.980321e-01	9.979661e-01	9.978952e-01	9.978189e-01	9.977364e-01	9.976463e-01	9.975468e-01	9.974360e-01	9.973122e-01	9.971729e-01	9.970148e-01	9.968323e-01	9.966163e-01	9.963496e-01	9.960073e-01	9.955489e-01	9.949285e-01	9.940968e-01	9.930075e-01	9.916535e-01	9.901897e-01	9.890271e-01	9.884810e-01	9.883584e-01	9.883676e-01	9.886127e-01	9.894304e-01	9.911504e-01	9.938887e-01	9.975294e-01	1.001881e+00	1.006789e+00	1.011955e+00	1.016569e+00	1.019541e+00	1.020669e+00	1.020992e+00	1.021445e+00	1.022148e+00	1.023028e+00	1.023467e+00	1.022904e+00	1.021834e+00	1.020912e+00	1.020311e+00	1.019850e+00	1.018414e+00	1.015051e+00	1.010172e+00	1.004862e+00	9.998270e-01	9.953431e-01	9.915884e-01	9.887331e-01	9.868033e-01	9.856101e-01	9.848219e-01	9.840676e-01	9.832386e-01	9.825454e-01	9.824541e-01	9.987595e-01	9.987871e-01	9.987795e-01	9.987813e-01	9.987807e-01	9.987781e-01	9.987761e-01	9.987739e-01	9.987703e-01	9.987665e-01	9.987622e-01	9.987573e-01	9.987521e-01	9.987460e-01	9.987377e-01	9.987264e-01	9.987121e-01	9.986961e-01	9.986806e-01	9.986668e-01	9.986508e-01	9.986342e-01	9.986162e-01	9.985981e-01	9.985836e-01	9.985663e-01	9.985482e-01	9.985281e-01	9.985060e-01	9.984822e-01	9.984559e-01	9.984271e-01	9.983956e-01	9.983611e-01	9.983230e-01	9.982819e-01	9.982374e-01	9.981893e-01	9.981371e-01	9.980805e-01	9.980188e-01	9.979521e-01	9.978802e-01	9.978029e-01	9.977195e-01	9.976286e-01	9.975279e-01	9.974154e-01	9.972889e-01	9.971460e-01	9.969835e-01	9.967953e-01	9.965701e-01	9.962891e-01	9.959223e-01	9.954317e-01	9.947714e-01	9.938906e-01	9.927419e-01	9.913488e-01	9.899558e-01	9.889952e-01	9.886303e-01	9.885769e-01	9.886205e-01	9.889543e-01	9.899023e-01	9.917304e-01	9.944996e-01	9.980983e-01	1.002400e+00	1.007273e+00	1.012328e+00	1.016665e+00	1.019289e+00	1.020210e+00	1.020520e+00	1.021014e+00	1.021715e+00	1.022473e+00	1.022825e+00	1.022384e+00	1.021444e+00	1.020517e+00	1.019851e+00	1.019397e+00	1.018191e+00	1.015173e+00	1.010536e+00	1.005319e+00	1.000324e+00	9.958929e-01	9.921608e-01	9.892463e-01	9.871891e-01	9.858449e-01	9.849206e-01	9.840824e-01	9.831129e-01	9.821855e-01	9.819225e-01	9.987607e-01	9.987778e-01	9.987751e-01	9.987755e-01	9.987754e-01	9.987731e-01	9.987716e-01	9.987702e-01	9.987667e-01	9.987625e-01	9.987575e-01	9.987524e-01	9.987465e-01	9.987402e-01	9.987314e-01	9.987191e-01	9.987046e-01	9.986895e-01	9.986744e-01	9.986601e-01	9.986450e-01	9.986281e-01	9.986097e-01	9.985947e-01	9.985779e-01	9.985618e-01	9.985437e-01	9.985233e-01	9.985008e-01	9.984760e-01	9.984488e-01	9.984192e-01	9.983869e-01	9.983515e-01	9.983128e-01	9.982708e-01	9.982253e-01	9.981762e-01	9.981232e-01	9.980659e-01	9.980038e-01	9.979366e-01	9.978641e-01	9.977859e-01	9.977014e-01	9.976092e-01	9.975069e-01	9.973920e-01	9.972619e-01	9.971145e-01	9.969465e-01	9.967511e-01	9.965144e-01	9.962148e-01	9.958207e-01	9.952923e-01	9.945833e-01	9.936391e-01	9.924214e-01	9.910101e-01	9.897429e-01	9.890249e-01	9.888224e-01	9.888089e-01	9.889103e-01	9.893569e-01	9.904508e-01	9.923893e-01	9.951845e-01	9.987457e-01	1.002998e+00	1.007807e+00	1.012696e+00	1.016705e+00	1.018961e+00	1.019695e+00	1.020012e+00	1.020544e+00	1.021232e+00	1.021862e+00	1.022127e+00	1.021802e+00	1.021006e+00	1.020091e+00	1.019359e+00	1.018895e+00	1.017889e+00	1.015230e+00	1.010892e+00	1.005827e+00	1.000904e+00	9.965215e-01	9.928047e-01	9.898271e-01	9.876295e-01	9.861176e-01	9.850311e-01	9.840688e-01	9.829777e-01	9.818336e-01	9.813914e-01	9.987615e-01	9.987702e-01	9.987697e-01	9.987695e-01	9.987697e-01	9.987679e-01	9.987667e-01	9.987655e-01	9.987618e-01	9.987570e-01	9.987515e-01	9.987457e-01	9.987400e-01	9.987326e-01	9.987229e-01	9.987103e-01	9.986961e-01	9.986818e-01	9.986675e-01	9.986528e-01	9.986373e-01	9.986206e-01	9.986037e-01	9.985874e-01	9.985719e-01	9.985559e-01	9.985379e-01	9.985178e-01	9.984948e-01	9.984692e-01	9.984409e-01	9.984102e-01	9.983770e-01	9.983410e-01	9.983016e-01	9.982588e-01	9.982121e-01	9.981617e-01	9.981074e-01	9.980493e-01	9.979868e-01	9.979193e-01	9.978463e-01	9.977672e-01	9.976812e-01	9.975869e-01	9.974823e-01	9.973646e-01	9.972309e-01	9.970788e-01	9.969045e-01	9.966995e-01	9.964489e-01	9.961269e-01	9.956999e-01	9.951269e-01	9.943580e-01	9.933363e-01	9.920476e-01	9.906546e-01	9.895788e-01	9.891180e-01	9.890408e-01	9.890596e-01	9.892401e-01	9.898287e-01	9.910792e-01	9.931257e-01	9.959445e-01	9.994706e-01	1.003663e+00	1.008369e+00	1.013038e+00	1.016673e+00	1.018561e+00	1.019130e+00	1.019464e+00	1.020035e+00	1.020700e+00	1.021215e+00	1.021405e+00	1.021179e+00	1.020522e+00	1.019627e+00	1.018837e+00	1.018336e+00	1.017505e+00	1.015208e+00	1.011218e+00	1.006369e+00	1.001557e+00	9.972297e-01	9.935215e-01	9.904760e-01	9.881284e-01	9.864301e-01	9.851596e-01	9.840271e-01	9.828154e-01	9.815260e-01	9.809457e-01	9.987592e-01	9.987639e-01	9.987634e-01	9.987638e-01	9.987635e-01	9.987618e-01	9.987604e-01	9.987590e-01	9.987554e-01	9.987503e-01	9.987442e-01	9.987389e-01	9.987324e-01	9.987249e-01	9.987146e-01	9.987020e-01	9.986881e-01	9.986742e-01	9.986606e-01	9.986454e-01	9.986294e-01	9.986132e-01	9.985961e-01	9.985801e-01	9.985642e-01	9.985483e-01	9.985308e-01	9.985099e-01	9.984866e-01	9.984602e-01	9.984312e-01	9.983996e-01	9.983656e-01	9.983292e-01	9.982892e-01	9.982455e-01	9.981977e-01	9.981461e-01	9.980907e-01	9.980315e-01	9.979683e-01	9.979003e-01	9.978266e-01	9.977462e-01	9.976581e-01	9.975609e-01	9.974528e-01	9.973316e-01	9.971944e-01	9.970376e-01	9.968561e-01	9.966402e-01	9.963713e-01	9.960224e-01	9.955570e-01	9.949305e-01	9.940882e-01	9.929766e-01	9.916229e-01	9.903132e-01	9.895047e-01	9.892742e-01	9.892657e-01	9.893321e-01	9.896274e-01	9.903785e-01	9.917895e-01	9.939379e-01	9.967788e-01	1.000266e+00	1.004378e+00	1.008936e+00	1.013330e+00	1.016552e+00	1.018084e+00	1.018515e+00	1.018875e+00	1.019485e+00	1.020129e+00	1.020552e+00	1.020688e+00	1.020537e+00	1.019994e+00	1.019120e+00	1.018271e+00	1.017722e+00	1.017033e+00	1.015093e+00	1.011500e+00	1.006925e+00	1.002265e+00	9.980102e-01	9.943113e-01	9.911930e-01	9.886892e-01	9.867831e-01	9.852991e-01	9.839696e-01	9.826065e-01	9.812890e-01	9.806741e-01	9.987522e-01	9.987579e-01	9.987567e-01	9.987577e-01	9.987564e-01	9.987544e-01	9.987525e-01	9.987507e-01	9.987471e-01	9.987420e-01	9.987363e-01	9.987303e-01	9.987242e-01	9.987158e-01	9.987058e-01	9.986938e-01	9.986808e-01	9.986672e-01	9.986528e-01	9.986377e-01	9.986213e-01	9.986047e-01	9.985884e-01	9.985722e-01	9.985561e-01	9.985399e-01	9.985209e-01	9.984998e-01	9.984761e-01	9.984487e-01	9.984191e-01	9.983869e-01	9.983526e-01	9.983151e-01	9.982744e-01	9.982300e-01	9.981816e-01	9.981293e-01	9.980732e-01	9.980132e-01	9.979492e-01	9.978804e-01	9.978056e-01	9.977235e-01	9.976326e-01	9.975316e-01	9.974189e-01	9.972931e-01	9.971517e-01	9.969897e-01	9.967998e-01	9.965698e-01	9.962792e-01	9.958980e-01	9.953870e-01	9.946961e-01	9.937642e-01	9.925505e-01	9.911622e-01	9.900253e-01	9.895444e-01	9.894722e-01	9.894953e-01	9.896428e-01	9.900855e-01	9.910159e-01	9.925836e-01	9.948240e-01	9.976839e-01	1.001124e+00	1.005126e+00	1.009488e+00	1.013542e+00	1.016335e+00	1.017521e+00	1.017852e+00	1.018248e+00	1.018892e+00	1.019527e+00	1.019898e+00	1.020008e+00	1.019907e+00	1.019432e+00	1.018562e+00	1.017653e+00	1.017049e+00	1.016474e+00	1.014895e+00	1.011718e+00	1.007467e+00	1.003002e+00	9.988497e-01	9.951677e-01	9.919766e-01	9.893149e-01	9.871815e-01	9.854425e-01	9.838894e-01	9.823754e-01	9.811321e-01	9.806367e-01	9.987459e-01	9.987497e-01	9.987502e-01	9.987509e-01	9.987490e-01	9.987461e-01	9.987433e-01	9.987412e-01	9.987375e-01	9.987330e-01	9.987267e-01	9.987207e-01	9.987135e-01	9.987056e-01	9.986958e-01	9.986849e-01	9.986725e-01	9.986591e-01	9.986445e-01	9.986290e-01	9.986122e-01	9.985962e-01	9.985800e-01	9.985637e-01	9.985477e-01	9.985298e-01	9.985105e-01	9.984885e-01	9.984634e-01	9.984359e-01	9.984057e-01	9.983725e-01	9.983372e-01	9.982988e-01	9.982571e-01	9.982118e-01	9.981629e-01	9.981104e-01	9.980542e-01	9.979939e-01	9.979293e-01	9.978595e-01	9.977832e-01	9.976989e-01	9.976046e-01	9.974994e-01	9.973820e-01	9.972508e-01	9.971034e-01	9.969350e-01	9.967345e-01	9.964876e-01	9.961705e-01	9.957505e-01	9.951842e-01	9.944141e-01	9.933722e-01	9.920483e-01	9.907051e-01	9.898784e-01	9.896632e-01	9.896677e-01	9.897429e-01	9.900111e-01	9.906281e-01	9.917479e-01	9.934628e-01	9.957803e-01	9.986531e-01	1.002035e+00	1.005891e+00	1.009990e+00	1.013646e+00	1.015986e+00	1.016880e+00	1.017143e+00	1.017573e+00	1.018254e+00	1.018904e+00	1.019278e+00	1.019397e+00	1.019312e+00	1.018846e+00	1.017951e+00	1.016980e+00	1.016320e+00	1.015830e+00	1.014573e+00	1.011841e+00	1.007958e+00	1.003748e+00	9.997322e-01	9.960769e-01	9.928219e-01	9.900068e-01	9.876266e-01	9.855952e-01	9.837815e-01	9.821519e-01	9.811024e-01	9.807922e-01	9.987410e-01	9.987408e-01	9.987426e-01	9.987432e-01	9.987409e-01	9.987374e-01	9.987338e-01	9.987311e-01	9.987272e-01	9.987230e-01	9.987162e-01	9.987097e-01	9.987026e-01	9.986940e-01	9.986849e-01	9.986750e-01	9.986632e-01	9.986499e-01	9.986345e-01	9.986182e-01	9.986009e-01	9.985855e-01	9.985698e-01	9.985538e-01	9.985365e-01	9.985187e-01	9.984984e-01	9.984759e-01	9.984511e-01	9.984222e-01	9.983912e-01	9.983574e-01	9.983208e-01	9.982811e-01	9.982380e-01	9.981915e-01	9.981420e-01	9.980893e-01	9.980330e-01	9.979726e-01	9.979074e-01	9.978365e-01	9.977583e-01	9.976711e-01	9.975733e-01	9.974638e-01	9.973417e-01	9.972051e-01	9.970508e-01	9.968729e-01	9.966602e-01	9.963926e-01	9.960434e-01	9.955766e-01	9.949424e-01	9.940706e-01	9.928913e-01	9.914842e-01	9.903314e-01	9.898803e-01	9.898281e-01	9.898634e-01	9.900303e-01	9.904533e-01	9.912673e-01	9.925777e-01	9.944255e-01	9.968014e-01	9.996746e-01	1.002988e+00	1.006652e+00	1.010417e+00	1.013610e+00	1.015519e+00	1.016167e+00	1.016388e+00	1.016851e+00	1.017573e+00	1.018276e+00	1.018711e+00	1.018870e+00	1.018768e+00	1.018249e+00	1.017291e+00	1.016255e+00	1.015540e+00	1.015107e+00	1.014132e+00	1.011819e+00	1.008373e+00	1.004490e+00	1.000644e+00	9.970226e-01	9.937183e-01	9.907606e-01	9.881210e-01	9.857589e-01	9.836698e-01	9.819931e-01	9.812241e-01	9.810713e-01	9.987364e-01	9.987316e-01	9.987334e-01	9.987349e-01	9.987322e-01	9.987285e-01	9.987238e-01	9.987206e-01	9.987162e-01	9.987113e-01	9.987049e-01	9.986977e-01	9.986904e-01	9.986823e-01	9.986732e-01	9.986625e-01	9.986526e-01	9.986397e-01	9.986237