# vtk DataFile Version 3.0
vtk output
ASCII
DATASET STRUCTURED_GRID
DIMENSIONS 101 101 1
POINTS 10201 double
0.000000e+00	0.000000e+00	0.0	1.000000e-02	0.000000e+00	0.0	2.000000e-02	0.000000e+00	0.0	3.000000e-02	0.000000e+00	0.0	4.000000e-02	0.000000e+00	0.0	5.000000e-02	0.000000e+00	0.0	6.000000e-02	0.000000e+00	0.0	7.000000e-02	0.000000e+00	0.0	8.000000e-02	0.000000e+00	0.0	9.000000e-02	0.000000e+00	0.0	1.000000e-01	0.000000e+00	0.0	1.100000e-01	0.000000e+00	0.0	1.200000e-01	0.000000e+00	0.0	1.300000e-01	0.000000e+00	0.0	1.400000e-01	0.000000e+00	0.0	1.500000e-01	0.000000e+00	0.0	1.600000e-01	0.000000e+00	0.0	1.700000e-01	0.000000e+00	0.0	1.800000e-01	0.000000e+00	0.0	1.900000e-01	0.000000e+00	0.0	2.000000e-01	0.000000e+00	0.0	2.100000e-01	0.000000e+00	0.0	2.200000e-01	0.000000e+00	0.0	2.300000e-01	0.000000e+00	0.0	2.400000e-01	0.000000e+00	0.0	2.500000e-01	0.000000e+00	0.0	2.600000e-01	0.000000e+00	0.0	2.700000e-01	0.000000e+00	0.0	2.800000e-01	0.000000e+00	0.0	2.900000e-01	0.000000e+00	0.0	3.000000e-01	0.000000e+00	0.0	3.100000e-01	0.000000e+00	0.0	3.200000e-01	0.000000e+00	0.0	3.300000e-01	0.000000e+00	0.0	3.400000e-01	0.000000e+00	0.0	3.500000e-01	0.000000e+00	0.0	3.600000e-01	0.000000e+00	0.0	3.700000e-01	0.000000e+00	0.0	3.800000e-01	0.000000e+00	0.0	3.900000e-01	0.000000e+00	0.0	4.000000e-01	0.000000e+00	0.0	4.100000e-01	0.000000e+00	0.0	4.200000e-01	0.000000e+00	0.0	4.300000e-01	0.000000e+00	0.0	4.400000e-01	0.000000e+00	0.0	4.500000e-01	0.000000e+00	0.0	4.600000e-01	0.000000e+00	0.0	4.700000e-01	0.000000e+00	0.0	4.800000e-01	0.000000e+00	0.0	4.900000e-01	0.000000e+00	0.0	5.000000e-01	0.000000e+00	0.0	5.100000e-01	0.000000e+00	0.0	5.200000e-01	0.000000e+00	0.0	5.300000e-01	0.000000e+00	0.0	5.400000e-01	0.000000e+00	0.0	5.500000e-01	0.000000e+00	0.0	5.600000e-01	0.000000e+00	0.0	5.700000e-01	0.000000e+00	0.0	5.800000e-01	0.000000e+00	0.0	5.900000e-01	0.000000e+00	0.0	6.000000e-01	0.000000e+00	0.0	6.100000e-01	0.000000e+00	0.0	6.200000e-01	0.000000e+00	0.0	6.300000e-01	0.000000e+00	0.0	6.400000e-01	0.000000e+00	0.0	6.500000e-01	0.000000e+00	0.0	6.600000e-01	0.000000e+00	0.0	6.700000e-01	0.000000e+00	0.0	6.800000e-01	0.000000e+00	0.0	6.900000e-01	0.000000e+00	0.0	7.000000e-01	0.000000e+00	0.0	7.100000e-01	0.000000e+00	0.0	7.200000e-01	0.000000e+00	0.0	7.300000e-01	0.000000e+00	0.0	7.400000e-01	0.000000e+00	0.0	7.500000e-01	0.000000e+00	0.0	7.600000e-01	0.000000e+00	0.0	7.700000e-01	0.000000e+00	0.0	7.800000e-01	0.000000e+00	0.0	7.900000e-01	0.000000e+00	0.0	8.000000e-01	0.000000e+00	0.0	8.100000e-01	0.000000e+00	0.0	8.200000e-01	0.000000e+00	0.0	8.300000e-01	0.000000e+00	0.0	8.400000e-01	0.000000e+00	0.0	8.500000e-01	0.000000e+00	0.0	8.600000e-01	0.000000e+00	0.0	8.700000e-01	0.000000e+00	0.0	8.800000e-01	0.000000e+00	0.0	8.900000e-01	0.000000e+00	0.0	9.000000e-01	0.000000e+00	0.0	9.100000e-01	0.000000e+00	0.0	9.200000e-01	0.000000e+00	0.0	9.300000e-01	0.000000e+00	0.0	9.400000e-01	0.000000e+00	0.0	9.500000e-01	0.000000e+00	0.0	9.600000e-01	0.000000e+00	0.0	9.700000e-01	0.000000e+00	0.0	9.800000e-01	0.000000e+00	0.0	9.900000e-01	0.000000e+00	0.0	1.000000e+00	0.000000e+00	0.0	0.000000e+00	1.000000e-02	0.0	1.000000e-02	1.000000e-02	0.0	2.000000e-02	1.000000e-02	0.0	3.000000e-02	1.000000e-02	0.0	4.000000e-02	1.000000e-02	0.0	5.000000e-02	1.000000e-02	0.0	6.000000e-02	1.000000e-02	0.0	7.000000e-02	1.000000e-02	0.0	8.000000e-02	1.000000e-02	0.0	9.000000e-02	1.000000e-02	0.0	1.000000e-01	1.000000e-02	0.0	1.100000e-01	1.000000e-02	0.0	1.200000e-01	1.000000e-02	0.0	1.300000e-01	1.000000e-02	0.0	1.400000e-01	1.000000e-02	0.0	1.500000e-01	1.000000e-02	0.0	1.600000e-01	1.000000e-02	0.0	1.700000e-01	1.000000e-02	0.0	1.800000e-01	1.000000e-02	0.0	1.900000e-01	1.000000e-02	0.0	2.000000e-01	1.000000e-02	0.0	2.100000e-01	1.000000e-02	0.0	2.200000e-01	1.000000e-02	0.0	2.300000e-01	1.000000e-02	0.0	2.400000e-01	1.000000e-02	0.0	2.500000e-01	1.000000e-02	0.0	2.600000e-01	1.000000e-02	0.0	2.700000e-01	1.000000e-02	0.0	2.800000e-01	1.000000e-02	0.0	2.900000e-01	1.000000e-02	0.0	3.000000e-01	1.000000e-02	0.0	3.100000e-01	1.000000e-02	0.0	3.200000e-01	1.000000e-02	0.0	3.300000e-01	1.000000e-02	0.0	3.400000e-01	1.000000e-02	0.0	3.500000e-01	1.000000e-02	0.0	3.600000e-01	1.000000e-02	0.0	3.700000e-01	1.000000e-02	0.0	3.800000e-01	1.000000e-02	0.0	3.900000e-01	1.000000e-02	0.0	4.000000e-01	1.000000e-02	0.0	4.100000e-01	1.000000e-02	0.0	4.200000e-01	1.000000e-02	0.0	4.300000e-01	1.000000e-02	0.0	4.400000e-01	1.000000e-02	0.0	4.500000e-01	1.000000e-02	0.0	4.600000e-01	1.000000e-02	0.0	4.700000e-01	1.000000e-02	0.0	4.800000e-01	1.000000e-02	0.0	4.900000e-01	1.000000e-02	0.0	5.000000e-01	1.000000e-02	0.0	5.100000e-01	1.000000e-02	0.0	5.200000e-01	1.000000e-02	0.0	5.300000e-01	1.000000e-02	0.0	5.400000e-01	1.000000e-02	0.0	5.500000e-01	1.000000e-02	0.0	5.600000e-01	1.000000e-02	0.0	5.700000e-01	1.000000e-02	0.0	5.800000e-01	1.000000e-02	0.0	5.900000e-01	1.000000e-02	0.0	6.000000e-01	1.000000e-02	0.0	6.100000e-01	1.000000e-02	0.0	6.200000e-01	1.000000e-02	0.0	6.300000e-01	1.000000e-02	0.0	6.400000e-01	1.000000e-02	0.0	6.500000e-01	1.000000e-02	0.0	6.600000e-01	1.000000e-02	0.0	6.700000e-01	1.000000e-02	0.0	6.800000e-01	1.000000e-02	0.0	6.900000e-01	1.000000e-02	0.0	7.000000e-01	1.000000e-02	0.0	7.100000e-01	1.000000e-02	0.0	7.200000e-01	1.000000e-02	0.0	7.300000e-01	1.000000e-02	0.0	7.400000e-01	1.000000e-02	0.0	7.500000e-01	1.000000e-02	0.0	7.600000e-01	1.000000e-02	0.0	7.700000e-01	1.000000e-02	0.0	7.800000e-01	1.000000e-02	0.0	7.900000e-01	1.000000e-02	0.0	8.000000e-01	1.000000e-02	0.0	8.100000e-01	1.000000e-02	0.0	8.200000e-01	1.000000e-02	0.0	8.300000e-01	1.000000e-02	0.0	8.400000e-01	1.000000e-02	0.0	8.500000e-01	1.000000e-02	0.0	8.600000e-01	1.000000e-02	0.0	8.700000e-01	1.000000e-02	0.0	8.800000e-01	1.000000e-02	0.0	8.900000e-01	1.000000e-02	0.0	9.000000e-01	1.000000e-02	0.0	9.100000e-01	1.000000e-02	0.0	9.200000e-01	1.000000e-02	0.0	9.300000e-01	1.000000e-02	0.0	9.400000e-01	1.000000e-02	0.0	9.500000e-01	1.000000e-02	0.0	9.600000e-01	1.000000e-02	0.0	9.700000e-01	1.000000e-02	0.0	9.800000e-01	1.000000e-02	0.0	9.900000e-01	1.000000e-02	0.0	1.000000e+00	1.000000e-02	0.0	0.000000e+00	2.000000e-02	0.0	1.000000e-02	2.000000e-02	0.0	2.000000e-02	2.000000e-02	0.0	3.000000e-02	2.000000e-02	0.0	4.000000e-02	2.000000e-02	0.0	5.000000e-02	2.000000e-02	0.0	6.000000e-02	2.000000e-02	0.0	7.000000e-02	2.000000e-02	0.0	8.000000e-02	2.000000e-02	0.0	9.000000e-02	2.000000e-02	0.0	1.000000e-01	2.000000e-02	0.0	1.100000e-01	2.000000e-02	0.0	1.200000e-01	2.000000e-02	0.0	1.300000e-01	2.000000e-02	0.0	1.400000e-01	2.000000e-02	0.0	1.500000e-01	2.000000e-02	0.0	1.600000e-01	2.000000e-02	0.0	1.700000e-01	2.000000e-02	0.0	1.800000e-01	2.000000e-02	0.0	1.900000e-01	2.000000e-02	0.0	2.000000e-01	2.000000e-02	0.0	2.100000e-01	2.000000e-02	0.0	2.200000e-01	2.000000e-02	0.0	2.300000e-01	2.000000e-02	0.0	2.400000e-01	2.000000e-02	0.0	2.500000e-01	2.000000e-02	0.0	2.600000e-01	2.000000e-02	0.0	2.700000e-01	2.000000e-02	0.0	2.800000e-01	2.000000e-02	0.0	2.900000e-01	2.000000e-02	0.0	3.000000e-01	2.000000e-02	0.0	3.100000e-01	2.000000e-02	0.0	3.200000e-01	2.000000e-02	0.0	3.300000e-01	2.000000e-02	0.0	3.400000e-01	2.000000e-02	0.0	3.500000e-01	2.000000e-02	0.0	3.600000e-01	2.000000e-02	0.0	3.700000e-01	2.000000e-02	0.0	3.800000e-01	2.000000e-02	0.0	3.900000e-01	2.000000e-02	0.0	4.000000e-01	2.000000e-02	0.0	4.100000e-01	2.000000e-02	0.0	4.200000e-01	2.000000e-02	0.0	4.300000e-01	2.000000e-02	0.0	4.400000e-01	2.000000e-02	0.0	4.500000e-01	2.000000e-02	0.0	4.600000e-01	2.000000e-02	0.0	4.700000e-01	2.000000e-02	0.0	4.800000e-01	2.000000e-02	0.0	4.900000e-01	2.000000e-02	0.0	5.000000e-01	2.000000e-02	0.0	5.100000e-01	2.000000e-02	0.0	5.200000e-01	2.000000e-02	0.0	5.300000e-01	2.000000e-02	0.0	5.400000e-01	2.000000e-02	0.0	5.500000e-01	2.000000e-02	0.0	5.600000e-01	2.000000e-02	0.0	5.700000e-01	2.000000e-02	0.0	5.800000e-01	2.000000e-02	0.0	5.900000e-01	2.000000e-02	0.0	6.000000e-01	2.000000e-02	0.0	6.100000e-01	2.000000e-02	0.0	6.200000e-01	2.000000e-02	0.0	6.300000e-01	2.000000e-02	0.0	6.400000e-01	2.000000e-02	0.0	6.500000e-01	2.000000e-02	0.0	6.600000e-01	2.000000e-02	0.0	6.700000e-01	2.000000e-02	0.0	6.800000e-01	2.000000e-02	0.0	6.900000e-01	2.000000e-02	0.0	7.000000e-01	2.000000e-02	0.0	7.100000e-01	2.000000e-02	0.0	7.200000e-01	2.000000e-02	0.0	7.300000e-01	2.000000e-02	0.0	7.400000e-01	2.000000e-02	0.0	7.500000e-01	2.000000e-02	0.0	7.600000e-01	2.000000e-02	0.0	7.700000e-01	2.000000e-02	0.0	7.800000e-01	2.000000e-02	0.0	7.900000e-01	2.000000e-02	0.0	8.000000e-01	2.000000e-02	0.0	8.100000e-01	2.000000e-02	0.0	8.200000e-01	2.000000e-02	0.0	8.300000e-01	2.000000e-02	0.0	8.400000e-01	2.000000e-02	0.0	8.500000e-01	2.000000e-02	0.0	8.600000e-01	2.000000e-02	0.0	8.700000e-01	2.000000e-02	0.0	8.800000e-01	2.000000e-02	0.0	8.900000e-01	2.000000e-02	0.0	9.000000e-01	2.000000e-02	0.0	9.100000e-01	2.000000e-02	0.0	9.200000e-01	2.000000e-02	0.0	9.300000e-01	2.000000e-02	0.0	9.400000e-01	2.000000e-02	0.0	9.500000e-01	2.000000e-02	0.0	9.600000e-01	2.000000e-02	0.0	9.700000e-01	2.000000e-02	0.0	9.800000e-01	2.000000e-02	0.0	9.900000e-01	2.000000e-02	0.0	1.000000e+00	2.000000e-02	0.0	0.000000e+00	3.000000e-02	0.0	1.000000e-02	3.000000e-02	0.0	2.000000e-02	3.000000e-02	0.0	3.000000e-02	3.000000e-02	0.0	4.000000e-02	3.000000e-02	0.0	5.000000e-02	3.000000e-02	0.0	6.000000e-02	3.000000e-02	0.0	7.000000e-02	3.000000e-02	0.0	8.000000e-02	3.000000e-02	0.0	9.000000e-02	3.000000e-02	0.0	1.000000e-01	3.000000e-02	0.0	1.100000e-01	3.000000e-02	0.0	1.200000e-01	3.000000e-02	0.0	1.300000e-01	3.000000e-02	0.0	1.400000e-01	3.000000e-02	0.0	1.500000e-01	3.000000e-02	0.0	1.600000e-01	3.000000e-02	0.0	1.700000e-01	3.000000e-02	0.0	1.800000e-01	3.000000e-02	0.0	1.900000e-01	3.000000e-02	0.0	2.000000e-01	3.000000e-02	0.0	2.100000e-01	3.000000e-02	0.0	2.200000e-01	3.000000e-02	0.0	2.300000e-01	3.000000e-02	0.0	2.400000e-01	3.000000e-02	0.0	2.500000e-01	3.000000e-02	0.0	2.600000e-01	3.000000
[...]
POINT_DATA 10201

SCALARS Height double 1
LOOKUP_TABLE default
1.050755e+00	1.055308e+00	1.050595e+00	1.048468e+00	1.044796e+00	1.039317e+00	1.028768e+00	1.012113e+00	9.934749e-01	9.793157e-01	9.720297e-01	9.696907e-01	9.696136e-01	9.702924e-01	9.711399e-01	9.719546e-01	9.727015e-01	9.733680e-01	9.738999e-01	9.742378e-01	9.743496e-01	9.742392e-01	9.739055e-01	9.733790e-01	9.727122e-01	9.719573e-01	9.711405e-01	9.702934e-01	9.694907e-01	9.688339e-01	9.684154e-01	9.683743e-01	9.688430e-01	9.700364e-01	9.723921e-01	9.762159e-01	9.818036e-01	9.893133e-01	9.990278e-01	1.011370e+00	1.026201e+00	1.041574e+00	1.053954e+00	1.061425e+00	1.064704e+00	1.064551e+00	1.059296e+00	1.045363e+00	1.025683e+00	1.010117e+00	1.003022e+00	1.000855e+00	1.000275e+00	1.000099e+00	1.000035e+00	1.000011e+00	1.000003e+00	1.000001e+00	1.000000e+00	1.000000e+00	1.000000e+00	1.000000e+00	1.000000e+00	1.000000e+00	1.000000e+00	1.000000e+00	1.000000e+00	1.000000e+00	1.000000e+00	1.000000e+00	1.000000e+00	1.000000e+00	1.000000e+00	1.000000e+00	1.000000e+00	1.000000e+00	1.000000e+00	1.000000e+00	1.000000e+00	1.000000e+00	1.000000e+00	1.000000e+00	1.000000e+00	1.000000e+00	1.000000e+00	1.000000e+00	1.000000e+00	1.000000e+00	1.000000e+00	1.000000e+00	1.000000e+00	1.000000e+00	1.000000e+00	1.000000e+00	1.000000e+00	1.000000e+00	1.000000e+00	1.000000e+00	1.000000e+00	1.000000e+00	1.000000e+00	1.055308e+00	1.059829e+00	1.054487e+00	1.051540e+00	1.046514e+00	1.040332e+00	1.029123e+00	1.012462e+00	9.941884e-01	9.799515e-01	9.725205e-01	9.700622e-01	9.700289e-01	9.707366e-01	9.715737e-01	9.723228e-01	9.729676e-01	9.735187e-01	9.739548e-01	9.742260e-01	9.743160e-01	9.742279e-01	9.739610e-01	9.735289e-01	9.729761e-01	9.723263e-01	9.715845e-01	9.707614e-01	9.699593e-01	9.693544e-01	9.691375e-01	9.694090e-01	9.701551e-01	9.718499e-01	9.747072e-01	9.788713e-01	9.846584e-01	9.924156e-01	1.002317e+00	1.014504e+00	1.028565e+00	1.042881e+00	1.054490e+00	1.061264e+00	1.063641e+00	1.062947e+00	1.056873e+00	1.043064e+00	1.024733e+00	1.010024e+00	1.002883e+00	1.000739e+00	1.000227e+00	1.000082e+00	1.000029e+00	1.000009e+00	1.000002e+00	1.000001e+00	1.000000e+00	1.000000e+00	1.000000e+00	1.000000e+00	1.000000e+00	1.000000e+00	1.000000e+00	1.000000e+00	1.000000e+00	1.000000e+00	1.000000e+00	1.000000e+00	1.000000e+00	1.000000e+00	1.000000e+00	1.000000e+00	1.000000e+00	1.000000e+00	1.000000e+00	1.000000e+00	1.000000e+00	1.000000e+00	1.000000e+00	1.000000e+00	1.000000e+00	1.000000e+00	1.000000e+00	1.000000e+00	1.000000e+00	1.000000e+00	1.000000e+00	1.000000e+00	1.000000e+00	1.000000e+00	1.000000e+00	1.000000e+00	1.000000e+00	1.000000e+00	1.000000e+00	1.000000e+00	1.000000e+00	1.000000e+00	1.000000e+00	1.050595e+00	1.054487e+00	1.051247e+00	1.049219e+00	1.044056e+00	1.037782e+00	1.027580e+00	1.014213e+00	1.000324e+00	9.874656e-01	9.780316e-01	9.735993e-01	9.729422e-01	9.735554e-01	9.743865e-01	9.751364e-01	9.757438e-01	9.762202e-01	9.765520e-01	9.767580e-01	9.768265e-01	9.767622e-01	9.765590e-01	9.762271e-01	9.757518e-01	9.751567e-01	9.744248e-01	9.735567e-01	9.726125e-01	9.717717e-01	9.713708e-01	9.716657e-01	9.727444e-01	9.750406e-01	9.783617e-01	9.826815e-01	9.882353e-01	9.954778e-01	1.004600e+00	1.015052e+00	1.025844e+00	1.036402e+00	1.046931e+00	1.055150e+00	1.058119e+00	1.057349e+00	1.051215e+00	1.039826e+00	1.028684e+00	1.017052e+00	1.006812e+00	1.001788e+00	1.000430e+00	1.000130e+00	1.000046e+00	1.000016e+00	1.000004e+00	1.000001e+00	1.000000e+00	1.000000e+00	1.000000e+00	1.000000e+00	1.000000e+00	1.000000e+00	1.000000e+00	1.000000e+00	1.000000e+00	1.000000e+00	1.000000e+00	1.000000e+00	1.000000e+00	1.000000e+00	1.000000e+00	1.000000e+00	1.000000e+00	1.000000e+00	1.000000e+00	1.000000e+00	1.000000e+00	1.000000e+00	1.000000e+00	1.000000e+00	1.000000e+00	1.000000e+00	1.000000e+00	1.000000e+00	1.000000e+00	1.000000e+00	1.000000e+00	1.000000e+00	1.000000e+00	1.000000e+00	1.000000e+00	1.000000e+00	1.000000e+00	1.000000e+00	1.000000e+00	1.000000e+00	1.000000e+00	1.000000e+00	1.000000e+00	1.048468e+00	1.051540e+00	1.049219e+00	1.048060e+00	1.043019e+00	1.036208e+00	1.026394e+00	1.016109e+00	1.007442e+00	9.985965e-01	9.887923e-01	9.813031e-01	9.781810e-01	9.775202e-01	9.775787e-01	9.777919e-01	9.780166e-01	9.782139e-01	9.783869e-01	9.785007e-01	9.785387e-01	9.785049e-01	9.783920e-01	9.782208e-01	9.780386e-01	9.778390e-01	9.776074e-01	9.773320e-01	9.770586e-01	9.768795e-01	9.768976e-01	9.772781e-01	9.784281e-01	9.808301e-01	9.844367e-01	9.892000e-01	9.950818e-01	1.001953e+00	1.009651e+00	1.017359e+00	1.024532e+00	1.031799e+00	1.040110e+00	1.047214e+00	1.049581e+00	1.048163e+00	1.042166e+00	1.034941e+00	1.029623e+00	1.022923e+00	1.012937e+00	1.004386e+00	1.001008e+00	1.000240e+00	1.000075e+00	1.000026e+00	1.000009e+00	1.000002e+00	1.000001e+00	1.000000e+00	1.000000e+00	1.000000e+00	1.000000e+00	1.000000e+00	1.000000e+00	1.000000e+00	1.000000e+00	1.000000e+00	1.000000e+00	1.000000e+00	1.000000e+00	1.000000e+00	1.000000e+00	1.000000e+00	1.000000e+00	1.000000e+00	1.000000e+00	1.000000e+00	1.000000e+00	1.000000e+00	1.000000e+00	1.000000e+00	1.000000e+00	1.000000e+00	1.000000e+00	1.000000e+00	1.000000e+00	1.000000e+00	1.000000e+00	1.000000e+00	1.000000e+00	1.000000e+00	1.000000e+00	1.000000e+00	1.000000e+00	1.000000e+00	1.000000e+00	1.000000e+00	1.000000e+00	1.000000e+00	1.000000e+00	1.044796e+00	1.046514e+00	1.044056e+00	1.043019e+00	1.039468e+00	1.034314e+00	1.027614e+00	1.021486e+00	1.016892e+00	1.011403e+00	1.002381e+00	9.919443e-01	9.853401e-01	9.827019e-01	9.817084e-01	9.812536e-01	9.810230e-01	9.809137e-01	9.808776e-01	9.808674e-01	9.808721e-01	9.808700e-01	9.808836e-01	9.809338e-01	9.810697e-01	9.813010e-01	9.816181e-01	9.820488e-01	9.826374e-01	9.834558e-01	9.844528e-01	9.856123e-01	9.870859e-01	9.892716e-01	9.926674e-01	9.973220e-01	1.002761e+00	1.008249e+00	1.013100e+00	1.017450e+00	1.021935e+00	1.027204e+00	1.032066e+00	1.035957e+00	1.037673e+00	1.036943e+00	1.034422e+00	1.031894e+00	1.029888e+00	1.026881e+00	1.019436e+00	1.009072e+00	1.002528e+00	1.000546e+00	1.000138e+00	1.000045e+00	1.000015e+00	1.000005e+00	1.000001e+00	1.000000e+00	1.000000e+00	1.000000e+00	1.000000e+00	1.000000e+00	1.000000e+00	1.000000e+00	1.000000e+00	1.000000e+00	1.000000e+00	1.000000e+00	1.000000e+00	1.000000e+00	1.000000e+00	1.000000e+00	1.000000e+00	1.000000e+00	1.000000e+00	1.000000e+00	1.000000e+00	1.000000e+00	1.000000e+00	1.000000e+00	1.000000e+00	1.000000e+00	1.000000e+00	1.000000e+00	1.000000e+00	1.000000e+00	1.000000e+00	1.000000e+00	1.000000e+00	1.000000e+00	1.000000e+00	1.000000e+00	1.000000e+00	1.000000e+00	1.000000e+00	1.000000e+00	1.000000e+00	1.000000e+00	1.000000e+00	1.039317e+00	1.040332e+00	1.037782e+00	1.036208e+00	1.034314e+00	1.033250e+00	1.031783e+00	1.029979e+00	1.027627e+00	1.023878e+00	1.016434e+00	1.005040e+00	9.949954e-01	9.897717e-01	9.874865e-01	9.862868e-01	9.855542e-01	9.851134e-01	9.848308e-01	9.846894e-01	9.846545e-01	9.846917e-01	9.848462e-01	9.851593e-01	9.856133e-01	9.862657e-01	9.871216e-01	9.882160e-01	9.896112e-01	9.913253e-01	9.933154e-01	9.954415e-01	9.975203e-01	9.996425e-01	1.002266e+00	1.005679e+00	1.009319e+00	1.012282e+00	1.014384e+00	1.016406e+00	1.019191e+00	1.021347e+00	1.022326e+00	1.022579e+00	1.023446e+00	1.026336e+00	1.029277e+00	1.029962e+00	1.029914e+00	1.028714e+00	1.024223e+00	1.014820e+00	1.005523e+00	1.001320e+00	1.000286e+00	1.000077e+00	1.000026e+00	1.000008e+00	1.000002e+00	1.000001e+00	1.000000e+00	1.000000e+00	1.000000e+00	1.000000e+00	1.000000e+00	1.000000e+00	1.000000e+00	1.000000e+00	1.000000e+00	1.000000e+00	1.000000e+00	1.000000e+00	1.000000e+00	1.000000e+00	1.000000e+00	1.000000e+00	1.000000e+00	1.000000e+00	1.000000e+00	1.000000e+00	1.000000e+00	1.000000e+00	1.000000e+00	1.000000e+00	1.000000e+00	1.000000e+00	1.000000e+00	1.000000e+00	1.000000e+00	1.000000e+00	1.000000e+00	1.000000e+00	1.000000e+00	1.000000e+00	1.000000e+00	1.000000e+00	1.000000e+00	1.000000e+00	1.000000e+00	1.000000e+00	1.000000e+00	1.028768e+00	1.029123e+00	1.027580e+00	1.026394e+00	1.027614e+00	1.031783e+00	1.036750e+00	1.039104e+00	1.037773e+00	1.034754e+00	1.029032e+00	1.019018e+00	1.007105e+00	9.990089e-01	9.951593e-01	9.931856e-01	9.919437e-01	9.911352e-01	9.906495e-01	9.903850e-01	9.902756e-01	9.903923e-01	9.906858e-01	9.912048e-01	9.919763e-01	9.929997e-01	9.942890e-01	9.958934e-01	9.978465e-01	1.000147e+00	1.002746e+00	1.005509e+00	1.008129e+00	1.010135e+00	1.011425e+00	1.012277e+00	1.012987e+00	1.013606e+00	1.014381e+00	1.014959e+00	1.014532e+00	1.012690e+00	1.010531e+00	1.009547e+00	1.011349e+00	1.018025e+00	1.025281e+00	1.028737e+00	1.029432e+00	1.029194e+00	1.026915e+00	1.019979e+00	1.009883e+00	1.002953e+00	1.000638e+00	1.000145e+00	1.000042e+00	1.000014e+00	1.000004e+00	1.000001e+00	1.000000e+00	1.000000e+00	1.000000e+00	1.000000e+00	1.000000e+00	1.000000e+00	1.000000e+00	1.000000e+00	1.000000e+00	1.000000e+00	1.000000e+00	1.000000e+00	1.000000e+00	1.000000e+00	1.000000e+00	1.000000e+00	1.000000e+00	1.000000e+00	1.000000e+00	1.000000e+00	1.000000e+00	1.000000e+00	1.000000e+00	1.000000e+00	1.000000e+00	1.000000e+00	1.000000e+00	1.000000e+00	1.000000e+00	1.000000e+00	1.000000e+00	1.000000e+00	1.000000e+00	1.000000e+00	1.000000e+00	1.000000e+00	1.000000e+00	1.000000e+00	1.000000e+00	1.000000e+00	1.000000e+00	1.012113e+00	1.012462e+00	1.014213e+00	1.016109e+00	1.021486e+00	1.029979e+00	1.039104e+00	1.044796e+00	1.045659e+00	1.043446e+00	1.039446e+00	1.032055e+00	1.020652e+00	1.010226e+00	1.004494e+00	1.001682e+00	1.000006e+00	9.989024e-01	9.982108e-01	9.978589e-01	9.977812e-01	9.978777e-01	9.982722e-01	9.989755e-01	9.999543e-01	1.001217e+00	1.002784e+00	1.004673e+00	1.006872e+00	1.009331e+00	1.011950e+00	1.014536e+00	1.016658e+00	1.017828e+00	1.017806e+00	1.016428e+00	1.014730e+00	1.013999e+00	1.013339e+00	1.011157e+00	1.006636e+00	1.001750e+00	9.991465e-01	9.991032e-01	1.003592e+00	1.012287e+00	1.021249e+00	1.027002e+00	1.028798e+00	1.029022e+00	1.027942e+00	1.023619e+00	1.014663e+00	1.005672e+00	1.001396e+00	1.000291e+00	1.000072e+00	1.000022e+00	1.000007e+00	1.000002e+00	1.000000e+00	1.000000e+00	1.000000e+00	1.000000e+00	1.000000e+00	1.000000e+00	1.000000e+00	1.000000e+00	1.000000e+00	1.000000e+00	1.000000e+00	1.000000e+00	1.000000e+00	1.000000e+00	1.000000e+00	1.000000e+00	1.000000e+00	1.000000e+00	1.000000e+00	1.000000e+00	1.000000e+00	1.000000e+00	1.000000e+00	1.000000e+00	1.000000e+00	1.000000e+00	1.000000e+00	1.000000e+00	1.000000e+00	1.000000e+00	1.000000e+00	1.000000e+00	1.000000e+00	1.000000e+00	1.000000e+00	1.000000e+00	1.000000e+00	1.000000e+00	1.000000e+00	1.000000e+00	1.000000e+00	9.934749e-01	9.941884e-01	1.000324e+00	1.007442e+00	1.016892e+00	1.027627e+00	1.037773e+00	1.045659e+00	1.049482e+00	1.049150e+00	1.046919e+00	1.042050e+00	1.033174e+00	1.022174e+00	1.014631e+00	1.010958e+00	1.008987e+00	1.007731e+00	1.006959e+00	1.006551e+00	1.006430e+00	1.006604e+00	1.007026e+00	1.007759e+00	1.008784e+00	1.010085e+00	1.011644e+00	1.013412e+00	1.015304e+00	1.017208e+00	1.018942e+00	1.020330e+00	1.021077e+00	1.021113e+00	1.020532e+00	1.018758e+00	1.016121e+00	1.013061e+00	1.008980e+00	1.003084e+00	9.965840e-01	9.923032e-01	9.911903e-01	9.928646e-01	9.990863e-01	1.007816e+00	1.017072e+00	1.024507e+00	1.027892e+00	1.028491e+00	1.028235e+00	1.025764e+00	1.018827e+00	1.009222e+00	1.002771e+00	1.000596e+00	1.000128e+00	1.000034e+00	1.000011e+00	1.000003e+00	1.000001e+00	1.000000e+00	1.000000e+00	1.000000e+00	1.000000e+00	1.000000e+00	1.000000e+00	1.000000e+00	1.000000e+00	1.000000e+00	1.000000e+00	1.000000e+00	1.000000e+00	1.000000e+00	1.000000e+00	1.000000e+00	1.000000e+00	1.000000e+00	1.000000e+00	1.000000e+00	1.000000e+00	1.000000e+00	1.000000e+00	1.000000e+00	1.000000e+00	1.000000e+00	1.000000e+00	1.000000e+00	1.000000e+00	1.000000e+00	1.000000e+00	1.000000e+00	1.000000e+00	1.000000e+00	1.000000e+00	1.000000e+00	1.000000e+00	1.000000e+00	1.000000e+00	1.000000e+00	1.000000e+00	9.793157e-01	9.799515e-01	9.874656e-01	9.985965e-01	1.011403e+00	1.023878e+00	1.034754e+00	1.043446e+00	1.049150e+00	1.050759e+00	1.050305e+00	1.047928e+00	1.041743e+00	1.032010e+00	1.023376e+00	1.019026e+00	1.017038e+00	1.015902e+00	1.015207e+00	1.014809e+00	1.014749e+00	1.014893e+00	1.015243e+00	1.015828e+00	1.016620e+00	1.017589e+00	1.018629e+00	1.019661e+00	1.020609e+00	1.021386e+00	1.021917e+00	1.022196e+00	1.022267e+00	1.022063e+00	1.021408e+00	1.019420e+00	1.015067e+00	1.008196e+00	1.000393e+00	9.934930e-01	9.889360e-01	9.870190e-01	9.869953e-01	9.898767e-01	9.959546e-01	1.003941e+00	1.012989e+00	1.021463e+00	1.026555e+00	1.027928e+00	1.028066e+00	1.026726e+00	1.021896e+00	1.012973e+00	1.004826e+00	1.001167e+00	1.000239e+00	1.000056e+00	1.000016e+00	1.000005e+00	1.000001e+00	1.000000e+00	1.000000e+00	1.000000e+00	1.000000e+00	1.000000e+00	1.000000e+00	1.000000e+00	1.000000e+00	1.000000e+00	1.000000e+00	1.000000e+00	1.000000e+00	1.000000e+00	1.000000e+00	1.000000e+00	1.000000e+00	1.000000e+00	1.000000e+00	1.000000e+00	1.000000e+00	1.000000e+00	1.000000e+00	1.000000e+00	1.000000e+00	1.000000e+00	1.000000e+00	1.000000e+00	1.000000e+00	1.000000e+00	1.000000e+00	1.000000e+00	1.000000e+00	1.000000e+00	1.000000e+00	1.000000e+00	1.000000e+00	1.000000e+00	1.000000e+00	1.000000e+00	1.000000e+00	9.720297e-01	9.725205e-01	9.780316e-01	9.887923e-01	1.002381e+00	1.016434e+00	1.029032e+00	1.039446e+00	1.046919e+00	1.050305e+00	1.050444e+00	1.049489e+00	1.045959e+00	1.038108e+00	1.028931e+00	1.023635e+00	1.021669e+00	1.020828e+00	1.020300e+00	1.020040e+00	1.020055e+00	1.020138e+00	1.020317e+00	1.020601e+00	1.020957e+00	1.021331e+00	1.021667e+00	1.021944e+00	1.022192e+00	1.022414e+00	1.022595e+00	1.022626e+00	1.022354e+00	1.021633e+00	1.019709e+00	1.015678e+00	1.008735e+00	9.998316e-01	9.919516e-01	9.873248e-01	9.853874e-01	9.849639e-01	9.854525e-01	9.882382e-01	9.934070e-01	1.000538e+00	1.009210e+00	1.018204e+00	1.024783e+00	1.027296e+00	1.027660e+00	1.027124e+00	1.023876e+00	1.016337e+00	1.007380e+00	1.002090e+00	1.000439e+00	1.000093e+00	1.000024e+00	1.000007e+00	1.000002e+00	1.000001e+00	1.000000e+00	1.000000e+00	1.000000e+00	1.000000e+00	1.000000e+00	1.000000e+00	1.000000e+00	1.000000e+00	1.000000e+00	1.000000e+00	1.000000e+00	1.000000e+00	1.000000e+00	1.000000e+00	1.000000e+00	1.000000e+00	1.000000e+00	1.000000e+00	1.000000e+00	1.000000e+00	1.000000e+00	1.000000e+00	1.000000e+00	1.000000e+00	1.000000e+00	1.000000e+00	1.000000e+00	1.000000e+00	1.000000e+00	1.000000e+00	1.000000e+00	1.000000e+00	1.000000e+00	1.000000e+00	1.000000e+00	1.000000e+00	1.000000e+00	1.000000e+00	1.000000e+00	9.696907e-01	9.700622e-01	9.735993e-01	9.813031e-01	9.919443e-01	1.005040e+00	1.019018e+00	1.032055e+00	1.042050e+00	1.047928e+00	1.049489e+00	1.049075e+00	1.046993e+00	1.041142e+00	1.032231e+00	1.025638e+00	1.023139e+00	1.022312e+00	1.021883e+00	1.021673e+00	1.021696e+00	1.021757e+00	1.021836e+00	1.021944e+00	1.022062e+00	1.022166e+00	1.022265e+00	1.022400e+00	1.022500e+00	1.022489e+00	1.022211e+00	1.021559e+00	1.020120e+00	1.017476e+00	1.013155e+00	1.007054e+00	9.999940e-01	9.933267e-01	9.882578e-01	9.854953e-01	9.845692e-01	9.844119e-01	9.850146e-01	9.871261e-01	9.913019e-01	9.976422e-01	1.005867e+00	1.015010e+00	1.022723e+00	1.026490e+00	1.027236e+00	1.027137e+00	1.025030e+00	1.019019e+00	1.010096e+00	1.003374e+00	1.000768e+00	1.000155e+00	1.000036e+00	1.000010e+00	1.000003e+00	1.000001e+00	1.000000e+00	1.000000e+00	1.000000e+00	1.000000e+00	1.000000e+00	1.000000e+00	1.000000e+00	1.000000e+00	1.000000e+00	1.000000e+00	1.000000e+00	1.000000e+00	1.000000e+00	1.000000e+00	1.000000e+00	1.000000e+00	1.000000e+00	1.000000e+00	1.000000e+00	1.000000e+00	1.000000e+00	1.000000e+00	1.000000e+00	1.000000e+00	1.000000e+00	1.000000e+00	1.000000e+00	1.000000e+00	1.000000e+00	1.000000e+00	1.000000e+00	1.000000e+00	1.000000e+00	1.000000e+00	1.000000e+00	1.000000e+00	1.000000e+00	1.000000e+00	1.000000e+00	9.696136e-01	9.700289e-01	9.729422e-01	9.781810e-01	9.853401e-01	9.949954e-01	1.007105e+00	1.020652e+00	1.033174e+00	1.041743e+00	1.045959e+00	1.046993e+00	1.046178e+00	1.042070e+00	1.034172e+00	1.026819e+00	1.023572e+00	1.022605e+00	1.022197e+00	1.021975e+00	1.021997e+00	1.022037e+00	1.022077e+00	1.022111e+00	1.022127e+00	1.022085e+00	1.021976e+00	1.021740e+00	1.021306e+00	1.020498e+00	1.019063e+00	1.016777e+00	1.013400e+00	1.008899e+00	1.003742e+00	9.988119e-01	9.946706e-01	9.911279e-01	9.878993e-01	9.855457e-01	9.846594e-01	9.845482e-01	9.848790e-01	9.863271e-01	9.896662e-01	9.952781e-01	1.003003e+00	1.012061e+00	1.020503e+00	1.025494e+00	1.026823e+00	1.026936e+00	1.025636e+00	1.020973e+00	1.012654e+00	1.004928e+00	1.001251e+00	1.000253e+00	1.000054e+00	1.000014e+00	1.000004e+00	1.000001e+00	1.000000e+00	1.000000e+00	1.000000e+00	1.000000e+00	1.000000e+00	1.000000e+00	1.000000e+00	1.000000e+00	1.000000e+00	1.000000e+00	1.000000e+00	1.000000e+00	1.000000e+00	1.000000e+00	1.000000e+00	1.000000e+00	1.000000e+00	1.000000e+00	1.000000e+00	1.000000e+00	1.000000e+00	1.000000e+00	1.000000e+00	1.000000e+00	1.000000e+00	1.000000e+00	1.000000e+00	1.000000e+00	1.000000e+00	1.000000e+00	1.000000e+00	1.000000e+00	1.000000e+00	1.000000e+00	1.000000e+00	1.000000e+00	1.000000e+00	1.000000e+00	1.000000e+00	9.702924e-01	9.707366e-01	9.735554e-01	9.775202e-01	9.827019e-01	9.897717e-01	9.990089e-01	1.010226e+00	1.022174e+00	1.032010e+00	1.038108e+00	1.041142e+00	1.042070e+00	1.040091e+00	1.033791e+00	1.026346e+00	1.022364e+00	1.021352e+00	1.021088e+00	1.020938e+00	1.020967e+00	1.020969e+00	1.020898e+00	1.020706e+00	1.020382e+00	1.019912e+00	1.019209e+00	1.018185e+00	1.016693e+00	1.014567e+00	1.011726e+00	1.008213e+00	1.004316e+00	1.000581e+00	9.975106e-01	9.951927e-01	9.932744e-01	9.912232e-01	9.887060e-01	9.862219e-01	9.849686e-01	9.847568e-01	9.848643e-01	9.858457e-01	9.884872e-01	9.934202e-01	1.000611e+00	1.009445e+00	1.018302e+00	1.024349e+00	1.026392e+00	1.026670e+00	1.025936e+00	1.022326e+00	1.014858e+00	1.006598e+00	1.001877e+00	1.000395e+00	1.000080e+00	1.000019e+00	1.000005e+00	1.000001e+00	1.000000e+00	1.000000e+00	1.000000e+00	1.000000e+00	1.000000e+00	1.000000e+00	1.000000e+00	1.000000e+00	1.000000e+00	1.000000e+00	1.000000e+00	1.000000e+00	1.000000e+00	1.000000e+00	1.000000e+00	1.000000e+00	1.000000e+00	1.000000e+00	1.000000e+00	1.000000e+00	1.000000e+00	1.000000e+00	1.000000e+00	1.000000e+00	1.000000e+00	1.000000e+00	1.000000e+00	1.000000e+00	1.000000e+00	1.000000e+00	1.000000e+00	1.000000e+00	1.000000e+00	1.000000e+00	1.000000e+00	1.000000e+00	1.000000e+00	1.000000e+00	1.000000e+00	9.711399e-01	9.715737e-01	9.743865e-01	9.775787e-01	9.817084e-01	9.874865e-01	9.951593e-01	1.004494e+00	1.014631e+00	1.023376e+00	1.028931e+00	1.032231e+00	1.034172e+00	1.033791e+00	1.029056e+00	1.022204e+00	1.017865e+00	1.016758e+00	1.016735e+00	1.016804e+00	1.016883e+00	1.016801e+00	1.016490e+00	1.015983e+00	1.015212e+00	1.014148e+00	1.012737e+00	1.010919e+00	1.008666e+00	1.006056e+00	1.003278e+00	1.000630e+00	9.983972e-01	9.967011e-01	9.954493e-01	9.944033e-01	9.932662e-01	9.917159e-01	9.895070e-01	9.870011e-01	9.853483e-01	9.849221e-01	9.849245e-01	9.855616e-01	9.876820e-01	9.920021e-01	9.986612e-01	1.007201e+00	1.016253e+00	1.023137e+00	1.025946e+00	1.026391e+00	1.026025e+00	1.023228e+00	1.016625e+00	1.008226e+00	1.002606e+00	1.000580e+00	1.000115e+00	1.000025e+00	1.000007e+00	1.000002e+00	1.000000e+00	1.000000e+00	1.000000e+00	1.000000e+00	1.000000e+00	1.000000e+00	1.000000e+00	1.000000e+00	1.000000e+00	1.000000e+00	1.000000e+00	1.000000e+00	1.000000e+00	1.000000e+00	1.000000e+00	1.000000e+00	1.000000e+00	1.000000e+00	1.000000e+00	1.000000e+00	1.000000e+00	1.000000e+00	1.000000e+00	1.000000e+00	1.000000e+00	1.000000e+00	1.000000e+00	1.000000e+00	1.000000e+00	1.000000e+00	1.000000e+00	1.000000e+00	1.000000e+00	1.000000e+00	1.000000e+00	1.000000e+00	1.000000e+00	1.000000e+00	1.000000e+00	9.719546e-01	9.723228e-01	9.751364e-01	9.777919e-01	9.812536e-01	9.862868e-01	9.931856e-01	1.001682e+00	1.010958e+00	1.019026e+00	1.023635e+00	1.025638e+00	1.026819e+00	1.026346e+00	1.022204e+00	1.015613e+00	1.010821e+00	1.009285e+00	1.009305