# vtk DataFile Version 3.0
vtk output
ASCII
DATASET STRUCTURED_GRID
DIMENSIONS 101 101 1
POINTS 10201 double
0.000000e+00	0.000000e+00	0.0	1.000000e-02	0.000000e+00	0.0	2.000000e-02	0.000000e+00	0.0	3.000000e-02	0.000000e+00	0.0	4.000000e-02	0.000000e+00	0.0	5.000000e-02	0.000000e+00	0.0	6.000000e-02	0.000000e+00	0.0	7.000000e-02	0.000000e+00	0.0	8.000000e-02	0.000000e+00	0.0	9.000000e-02	0.000000e+00	0.0	1.000000e-01	0.000000e+00	0.0	1.100000e-01	0.000000e+00	0.0	1.200000e-01	0.000000e+00	0.0	1.300000e-01	0.000000e+00	0.0	1.400000e-01	0.000000e+00	0.0	1.500000e-01	0.000000e+00	0.0	1.600000e-01	0.000000e+00	0.0	1.700000e-01	0.000000e+00	0.0	1.800000e-01	0.000000e+00	0.0	1.900000e-01	0.000000e+00	0.0	2.000000e-01	0.000000e+00	0.0	2.100000e-01	0.000000e+00	0.0	2.200000e-01	0.000000e+00	0.0	2.300000e-01	0.000000e+00	0.0	2.400000e-01	0.000000e+00	0.0	2.500000e-01	0.000000e+00	0.0	2.600000e-01	0.000000e+00	0.0	2.700000e-01	0.000000e+00	0.0	2.800000e-01	0.000000e+00	0.0	2.900000e-01	0.000000e+00	0.0	3.000000e-01	0.000000e+00	0.0	3.100000e-01	0.000000e+00	0.0	3.200000e-01	0.000000e+00	0.0	3.300000e-01	0.000000e+00	0.0	3.400000e-01	0.000000e+00	0.0	3.500000e-01	0.000000e+00	0.0	3.600000e-01	0.000000e+00	0.0	3.700000e-01	0.000000e+00	0.0	3.800000e-01	0.000000e+00	0.0	3.900000e-01	0.000000e+00	0.0	4.000000e-01	0.000000e+00	0.0	4.100000e-01	0.000000e+00	0.0	4.200000e-01	0.000000e+00	0.0	4.300000e-01	0.000000e+00	0.0	4.400000e-01	0.000000e+00	0.0	4.500000e-01	0.000000e+00	0.0	4.600000e-01	0.000000e+00	0.0	4.700000e-01	0.000000e+00	0.0	4.800000e-01	0.000000e+00	0.0	4.900000e-01	0.000000e+00	0.0	5.000000e-01	0.000000e+00	0.0	5.100000e-01	0.000000e+00	0.0	5.200000e-01	0.000000e+00	0.0	5.300000e-01	0.000000e+00	0.0	5.400000e-01	0.000000e+00	0.0	5.500000e-01	0.000000e+00	0.0	5.600000e-01	0.000000e+00	0.0	5.700000e-01	0.000000e+00	0.0	5.800000e-01	0.000000e+00	0.0	5.900000e-01	0.000000e+00	0.0	6.000000e-01	0.000000e+00	0.0	6.100000e-01	0.000000e+00	0.0	6.200000e-01	0.000000e+00	0.0	6.300000e-01	0.000000e+00	0.0	6.400000e-01	0.000000e+00	0.0	6.500000e-01	0.000000e+00	0.0	6.600000e-01	0.000000e+00	0.0	6.700000e-01	0.000000e+00	0.0	6.800000e-01	0.000000e+00	0.0	6.900000e-01	0.000000e+00	0.0	7.000000e-01	0.000000e+00	0.0	7.100000e-01	0.000000e+00	0.0	7.200000e-01	0.000000e+00	0.0	7.300000e-01	0.000000e+00	0.0	7.400000e-01	0.000000e+00	0.0	7.500000e-01	0.000000e+00	0.0	7.600000e-01	0.000000e+00	0.0	7.700000e-01	0.000000e+00	0.0	7.800000e-01	0.000000e+00	0.0	7.900000e-01	0.000000e+00	0.0	8.000000e-01	0.000000e+00	0.0	8.100000e-01	0.000000e+00	0.0	8.200000e-01	0.000000e+00	0.0	8.300000e-01	0.000000e+00	0.0	8.400000e-01	0.000000e+00	0.0	8.500000e-01	0.000000e+00	0.0	8.600000e-01	0.000000e+00	0.0	8.700000e-01	0.000000e+00	0.0	8.800000e-01	0.000000e+00	0.0	8.900000e-01	0.000000e+00	0.0	9.000000e-01	0.000000e+00	0.0	9.100000e-01	0.000000e+00	0.0	9.200000e-01	0.000000e+00	0.0	9.300000e-01	0.000000e+00	0.0	9.400000e-01	0.000000e+00	0.0	9.500000e-01	0.000000e+00	0.0	9.600000e-01	0.000000e+00	0.0	9.700000e-01	0.000000e+00	0.0	9.800000e-01	0.000000e+00	0.0	9.900000e-01	0.000000e+00	0.0	1.000000e+00	0.000000e+00	0.0	0.000000e+00	1.000000e-02	0.0	1.000000e-02	1.000000e-02	0.0	2.000000e-02	1.000000e-02	0.0	3.000000e-02	1.000000e-02	0.0	4.000000e-02	1.000000e-02	0.0	5.000000e-02	1.000000e-02	0.0	6.000000e-02	1.000000e-02	0.0	7.000000e-02	1.000000e-02	0.0	8.000000e-02	1.000000e-02	0.0	9.000000e-02	1.000000e-02	0.0	1.000000e-01	1.000000e-02	0.0	1.100000e-01	1.000000e-02	0.0	1.200000e-01	1.000000e-02	0.0	1.300000e-01	1.000000e-02	0.0	1.400000e-01	1.000000e-02	0.0	1.500000e-01	1.000000e-02	0.0	1.600000e-01	1.000000e-02	0.0	1.700000e-01	1.000000e-02	0.0	1.800000e-01	1.000000e-02	0.0	1.900000e-01	1.000000e-02	0.0	2.000000e-01	1.000000e-02	0.0	2.100000e-01	1.000000e-02	0.0	2.200000e-01	1.000000e-02	0.0	2.300000e-01	1.000000e-02	0.0	2.400000e-01	1.000000e-02	0.0	2.500000e-01	1.000000e-02	0.0	2.600000e-01	1.000000e-02	0.0	2.700000e-01	1.000000e-02	0.0	2.800000e-01	1.000000e-02	0.0	2.900000e-01	1.000000e-02	0.0	3.000000e-01	1.000000e-02	0.0	3.100000e-01	1.000000e-02	0.0	3.200000e-01	1.000000e-02	0.0	3.300000e-01	1.000000e-02	0.0	3.400000e-01	1.000000e-02	0.0	3.500000e-01	1.000000e-02	0.0	3.600000e-01	1.000000e-02	0.0	3.700000e-01	1.000000e-02	0.0	3.800000e-01	1.000000e-02	0.0	3.900000e-01	1.000000e-02	0.0	4.000000e-01	1.000000e-02	0.0	4.100000e-01	1.000000e-02	0.0	4.200000e-01	1.000000e-02	0.0	4.300000e-01	1.000000e-02	0.0	4.400000e-01	1.000000e-02	0.0	4.500000e-01	1.000000e-02	0.0	4.600000e-01	1.000000e-02	0.0	4.700000e-01	1.000000e-02	0.0	4.800000e-01	1.000000e-02	0.0	4.900000e-01	1.000000e-02	0.0	5.000000e-01	1.000000e-02	0.0	5.100000e-01	1.000000e-02	0.0	5.200000e-01	1.000000e-02	0.0	5.300000e-01	1.000000e-02	0.0	5.400000e-01	1.000000e-02	0.0	5.500000e-01	1.000000e-02	0.0	5.600000e-01	1.000000e-02	0.0	5.700000e-01	1.000000e-02	0.0	5.800000e-01	1.000000e-02	0.0	5.900000e-01	1.000000e-02	0.0	6.000000e-01	1.000000e-02	0.0	6.100000e-01	1.000000e-02	0.0	6.200000e-01	1.000000e-02	0.0	6.300000e-01	1.000000e-02	0.0	6.400000e-01	1.000000e-02	0.0	6.500000e-01	1.000000e-02	0.0	6.600000e-01	1.000000e-02	0.0	6.700000e-01	1.000000e-02	0.0	6.800000e-01	1.000000e-02	0.0	6.900000e-01	1.000000e-02	0.0	7.000000e-01	1.000000e-02	0.0	7.100000e-01	1.000000e-02	0.0	7.200000e-01	1.000000e-02	0.0	7.300000e-01	1.000000e-02	0.0	7.400000e-01	1.000000e-02	0.0	7.500000e-01	1.000000e-02	0.0	7.600000e-01	1.000000e-02	0.0	7.700000e-01	1.000000e-02	0.0	7.800000e-01	1.000000e-02	0.0	7.900000e-01	1.000000e-02	0.0	8.000000e-01	1.000000e-02	0.0	8.100000e-01	1.000000e-02	0.0	8.200000e-01	1.000000e-02	0.0	8.300000e-01	1.000000e-02	0.0	8.400000e-01	1.000000e-02	0.0	8.500000e-01	1.000000e-02	0.0	8.600000e-01	1.000000e-02	0.0	8.700000e-01	1.000000e-02	0.0	8.800000e-01	1.000000e-02	0.0	8.900000e-01	1.000000e-02	0.0	9.000000e-01	1.000000e-02	0.0	9.100000e-01	1.000000e-02	0.0	9.200000e-01	1.000000e-02	0.0	9.300000e-01	1.000000e-02	0.0	9.400000e-01	1.000000e-02	0.0	9.500000e-01	1.000000e-02	0.0	9.600000e-01	1.000000e-02	0.0	9.700000e-01	1.000000e-02	0.0	9.800000e-01	1.000000e-02	0.0	9.900000e-01	1.000000e-02	0.0	1.000000e+00	1.000000e-02	0.0	0.000000e+00	2.000000e-02	0.0	1.000000e-02	2.000000e-02	0.0	2.000000e-02	2.000000e-02	0.0	3.000000e-02	2.000000e-02	0.0	4.000000e-02	2.000000e-02	0.0	5.000000e-02	2.000000e-02	0.0	6.000000e-02	2.000000e-02	0.0	7.000000e-02	2.000000e-02	0.0	8.000000e-02	2.000000e-02	0.0	9.000000e-02	2.000000e-02	0.0	1.000000e-01	2.000000e-02	0.0	1.100000e-01	2.000000e-02	0.0	1.200000e-01	2.000000e-02	0.0	1.300000e-01	2.000000e-02	0.0	1.400000e-01	2.000000e-02	0.0	1.500000e-01	2.000000e-02	0.0	1.600000e-01	2.000000e-02	0.0	1.700000e-01	2.000000e-02	0.0	1.800000e-01	2.000000e-02	0.0	1.900000e-01	2.000000e-02	0.0	2.000000e-01	2.000000e-02	0.0	2.100000e-01	2.000000e-02	0.0	2.200000e-01	2.000000e-02	0.0	2.300000e-01	2.000000e-02	0.0	2.400000e-01	2.000000e-02	0.0	2.500000e-01	2.000000e-02	0.0	2.600000e-01	2.000000e-02	0.0	2.700000e-01	2.000000e-02	0.0	2.800000e-01	2.000000e-02	0.0	2.900000e-01	2.000000e-02	0.0	3.000000e-01	2.000000e-02	0.0	3.100000e-01	2.000000e-02	0.0	3.200000e-01	2.000000e-02	0.0	3.300000e-01	2.000000e-02	0.0	3.400000e-01	2.000000e-02	0.0	3.500000e-01	2.000000e-02	0.0	3.600000e-01	2.000000e-02	0.0	3.700000e-01	2.000000e-02	0.0	3.800000e-01	2.000000e-02	0.0	3.900000e-01	2.000000e-02	0.0	4.000000e-01	2.000000e-02	0.0	4.100000e-01	2.000000e-02	0.0	4.200000e-01	2.000000e-02	0.0	4.300000e-01	2.000000e-02	0.0	4.400000e-01	2.000000e-02	0.0	4.500000e-01	2.000000e-02	0.0	4.600000e-01	2.000000e-02	0.0	4.700000e-01	2.000000e-02	0.0	4.800000e-01	2.000000e-02	0.0	4.900000e-01	2.000000e-02	0.0	5.000000e-01	2.000000e-02	0.0	5.100000e-01	2.000000e-02	0.0	5.200000e-01	2.000000e-02	0.0	5.300000e-01	2.000000e-02	0.0	5.400000e-01	2.000000e-02	0.0	5.500000e-01	2.000000e-02	0.0	5.600000e-01	2.000000e-02	0.0	5.700000e-01	2.000000e-02	0.0	5.800000e-01	2.000000e-02	0.0	5.900000e-01	2.000000e-02	0.0	6.000000e-01	2.000000e-02	0.0	6.100000e-01	2.000000e-02	0.0	6.200000e-01	2.000000e-02	0.0	6.300000e-01	2.000000e-02	0.0	6.400000e-01	2.000000e-02	0.0	6.500000e-01	2.000000e-02	0.0	6.600000e-01	2.000000e-02	0.0	6.700000e-01	2.000000e-02	0.0	6.800000e-01	2.000000e-02	0.0	6.900000e-01	2.000000e-02	0.0	7.000000e-01	2.000000e-02	0.0	7.100000e-01	2.000000e-02	0.0	7.200000e-01	2.000000e-02	0.0	7.300000e-01	2.000000e-02	0.0	7.400000e-01	2.000000e-02	0.0	7.500000e-01	2.000000e-02	0.0	7.600000e-01	2.000000e-02	0.0	7.700000e-01	2.000000e-02	0.0	7.800000e-01	2.000000e-02	0.0	7.900000e-01	2.000000e-02	0.0	8.000000e-01	2.000000e-02	0.0	8.100000e-01	2.000000e-02	0.0	8.200000e-01	2.000000e-02	0.0	8.300000e-01	2.000000e-02	0.0	8.400000e-01	2.000000e-02	0.0	8.500000e-01	2.000000e-02	0.0	8.600000e-01	2.000000e-02	0.0	8.700000e-01	2.000000e-02	0.0	8.800000e-01	2.000000e-02	0.0	8.900000e-01	2.000000e-02	0.0	9.000000e-01	2.000000e-02	0.0	9.100000e-01	2.000000e-02	0.0	9.200000e-01	2.000000e-02	0.0	9.300000e-01	2.000000e-02	0.0	9.400000e-01	2.000000e-02	0.0	9.500000e-01	2.000000e-02	0.0	9.600000e-01	2.000000e-02	0.0	9.700000e-01	2.000000e-02	0.0	9.800000e-01	2.000000e-02	0.0	9.900000e-01	2.000000e-02	0.0	1.000000e+00	2.000000e-02	0.0	0.000000e+00	3.000000e-02	0.0	1.000000e-02	3.000000e-02	0.0	2.000000e-02	3.000000e-02	0.0	3.000000e-02	3.000000e-02	0.0	4.000000e-02	3.000000e-02	0.0	5.000000e-02	3.000000e-02	0.0	6.000000e-02	3.000000e-02	0.0	7.000000e-02	3.000000e-02	0.0	8.000000e-02	3.000000e-02	0.0	9.000000e-02	3.000000e-02	0.0	1.000000e-01	3.000000e-02	0.0	1.100000e-01	3.000000e-02	0.0	1.200000e-01	3.000000e-02	0.0	1.300000e-01	3.000000e-02	0.0	1.400000e-01	3.000000e-02	0.0	1.500000e-01	3.000000e-02	0.0	1.600000e-01	3.000000e-02	0.0	1.700000e-01	3.000000e-02	0.0	1.800000e-01	3.000000e-02	0.0	1.900000e-01	3.000000e-02	0.0	2.000000e-01	3.000000e-02	0.0	2.100000e-01	3.000000e-02	0.0	2.200000e-01	3.000000e-02	0.0	2.300000e-01	3.000000e-02	0.0	2.400000e-01	3.000000e-02	0.0	2.500000e-01	3.000000e-02	0.0	2.600000e-01	3.000000
[...]
POINT_DATA 10201

SCALARS Height double 1
LOOKUP_TABLE default
9.986339e-01	9.986425e-01	9.986510e-01	9.986470e-01	9.986463e-01	9.986440e-01	9.986419e-01	9.986396e-01	9.986404e-01	9.986429e-01	9.986421e-01	9.986351e-01	9.986211e-01	9.986027e-01	9.985835e-01	9.985657e-01	9.985504e-01	9.985391e-01	9.985306e-01	9.985226e-01	9.985117e-01	9.984925e-01	9.984690e-01	9.984425e-01	9.984165e-01	9.983903e-01	9.983626e-01	9.983338e-01	9.983031e-01	9.982696e-01	9.982332e-01	9.981934e-01	9.981500e-01	9.981025e-01	9.980505e-01	9.979936e-01	9.979321e-01	9.978649e-01	9.977923e-01	9.977139e-01	9.976283e-01	9.975343e-01	9.974300e-01	9.973140e-01	9.971848e-01	9.970412e-01	9.968815e-01	9.967026e-01	9.964975e-01	9.962521e-01	9.959406e-01	9.955214e-01	9.949329e-01	9.940972e-01	9.929478e-01	9.914965e-01	9.899048e-01	9.884755e-01	9.874813e-01	9.869719e-01	9.868340e-01	9.869953e-01	9.879199e-01	9.900711e-01	9.935252e-01	9.980642e-01	1.003327e+00	1.008907e+00	1.014306e+00	1.018861e+00	1.021959e+00	1.023521e+00	1.023890e+00	1.023217e+00	1.020068e+00	1.013901e+00	1.006851e+00	1.001817e+00	9.993577e-01	9.984569e-01	9.982464e-01	9.984504e-01	9.993312e-01	1.001745e+00	1.006691e+00	1.013540e+00	1.019381e+00	1.022109e+00	1.022448e+00	1.021724e+00	1.019628e+00	1.015831e+00	1.010507e+00	1.004210e+00	9.974735e-01	9.907903e-01	9.847414e-01	9.799890e-01	9.769175e-01	9.756118e-01	9.751616e-01	9.986459e-01	9.986453e-01	9.986547e-01	9.986511e-01	9.986495e-01	9.986460e-01	9.986434e-01	9.986418e-01	9.986440e-01	9.986457e-01	9.986439e-01	9.986357e-01	9.986203e-01	9.986002e-01	9.985789e-01	9.985592e-01	9.985418e-01	9.985283e-01	9.985175e-01	9.985063e-01	9.984948e-01	9.984768e-01	9.984555e-01	9.984330e-01	9.984081e-01	9.983856e-01	9.983601e-01	9.983324e-01	9.983020e-01	9.982689e-01	9.982327e-01	9.981928e-01	9.981493e-01	9.981017e-01	9.980494e-01	9.979922e-01	9.979299e-01	9.978623e-01	9.977890e-01	9.977101e-01	9.976235e-01	9.975286e-01	9.974234e-01	9.973065e-01	9.971764e-01	9.970318e-01	9.968708e-01	9.966902e-01	9.964831e-01	9.962355e-01	9.959218e-01	9.955003e-01	9.949095e-01	9.940723e-01	9.929227e-01	9.914683e-01	9.898618e-01	9.883934e-01	9.873542e-01	9.868868e-01	9.868125e-01	9.869883e-01	9.878937e-01	9.900096e-01	9.934719e-01	9.980354e-01	1.003335e+00	1.008942e+00	1.014370e+00	1.019026e+00	1.022287e+00	1.023722e+00	1.023882e+00	1.023234e+00	1.020302e+00	1.014259e+00	1.006919e+00	1.001562e+00	9.991056e-01	9.983144e-01	9.981499e-01	9.983075e-01	9.990766e-01	1.001491e+00	1.006769e+00	1.013915e+00	1.019602e+00	1.022125e+00	1.022433e+00	1.021955e+00	1.019946e+00	1.015967e+00	1.010550e+00	1.004221e+00	9.974495e-01	9.907289e-01	9.846485e-01	9.798706e-01	9.767649e-01	9.755597e-01	9.751397e-01	9.986534e-01	9.986525e-01	9.986638e-01	9.986587e-01	9.986565e-01	9.986527e-01	9.986491e-01	9.986460e-01	9.986454e-01	9.986459e-01	9.986432e-01	9.986344e-01	9.986190e-01	9.985995e-01	9.985785e-01	9.985581e-01	9.985412e-01	9.985287e-01	9.985182e-01	9.985075e-01	9.984958e-01	9.984777e-01	9.984566e-01	9.984309e-01	9.984061e-01	9.983800e-01	9.983561e-01	9.983287e-01	9.982989e-01	9.982664e-01	9.982302e-01	9.981910e-01	9.981478e-01	9.981006e-01	9.980488e-01	9.979923e-01	9.979309e-01	9.978643e-01	9.977921e-01	9.977137e-01	9.976281e-01	9.975340e-01	9.974297e-01	9.973138e-01	9.971847e-01	9.970404e-01	9.968789e-01	9.966967e-01	9.964864e-01	9.962342e-01	9.959146e-01	9.954851e-01	9.948845e-01	9.940406e-01	9.928983e-01	9.914702e-01	9.898919e-01	9.884228e-01	9.873999e-01	9.870052e-01	9.869582e-01	9.871643e-01	9.880832e-01	9.901706e-01	9.935870e-01	9.981148e-01	1.003348e+00	1.008870e+00	1.014247e+00	1.018974e+00	1.022247e+00	1.023455e+00	1.023560e+00	1.022909e+00	1.020174e+00	1.014435e+00	1.007153e+00	1.001614e+00	9.990537e-01	9.982691e-01	9.981148e-01	9.982534e-01	9.990053e-01	1.001521e+00	1.006995e+00	1.014085e+00	1.019465e+00	1.021799e+00	1.022112e+00	1.021690e+00	1.019892e+00	1.015883e+00	1.010395e+00	1.004115e+00	9.974271e-01	9.907944e-01	9.848172e-01	9.800879e-01	9.770029e-01	9.758390e-01	9.754058e-01	9.986492e-01	9.986496e-01	9.986592e-01	9.986543e-01	9.986523e-01	9.986491e-01	9.986460e-01	9.986429e-01	9.986430e-01	9.986437e-01	9.986409e-01	9.986319e-01	9.986160e-01	9.985965e-01	9.985770e-01	9.985580e-01	9.985420e-01	9.985286e-01	9.985192e-01	9.985089e-01	9.984969e-01	9.984787e-01	9.984571e-01	9.984319e-01	9.984066e-01	9.983816e-01	9.983559e-01	9.983278e-01	9.982975e-01	9.982640e-01	9.982276e-01	9.981875e-01	9.981436e-01	9.980956e-01	9.980431e-01	9.979859e-01	9.979241e-01	9.978572e-01	9.977848e-01	9.977059e-01	9.976198e-01	9.975256e-01	9.974211e-01	9.973052e-01	9.971757e-01	9.970305e-01	9.968672e-01	9.966817e-01	9.964665e-01	9.962069e-01	9.958772e-01	9.954337e-01	9.948151e-01	9.939529e-01	9.928024e-01	9.913817e-01	9.898085e-01	9.883479e-01	9.874077e-01	9.871136e-01	9.870932e-01	9.873330e-01	9.882978e-01	9.904208e-01	9.938290e-01	9.983239e-01	1.003492e+00	1.008942e+00	1.014326e+00	1.019103e+00	1.022196e+00	1.023186e+00	1.023247e+00	1.022591e+00	1.019959e+00	1.014407e+00	1.007252e+00	1.001680e+00	9.990694e-01	9.982651e-01	9.981020e-01	9.982319e-01	9.989893e-01	1.001560e+00	1.007088e+00	1.014053e+00	1.019233e+00	1.021467e+00	1.021788e+00	1.021417e+00	1.019839e+00	1.015961e+00	1.010404e+00	1.004116e+00	9.974917e-01	9.909255e-01	9.849910e-01	9.802725e-01	9.772229e-01	9.760920e-01	9.756623e-01	9.986492e-01	9.986495e-01	9.986580e-01	9.986531e-01	9.986508e-01	9.986476e-01	9.986443e-01	9.986399e-01	9.986387e-01	9.986383e-01	9.986348e-01	9.986254e-01	9.986098e-01	9.985910e-01	9.985720e-01	9.985544e-01	9.985391e-01	9.985251e-01	9.985158e-01	9.985057e-01	9.984934e-01	9.984765e-01	9.984541e-01	9.984291e-01	9.984037e-01	9.983787e-01	9.983520e-01	9.983234e-01	9.982925e-01	9.982590e-01	9.982223e-01	9.981815e-01	9.981369e-01	9.980881e-01	9.980348e-01	9.979772e-01	9.979150e-01	9.978480e-01	9.977756e-01	9.976967e-01	9.976106e-01	9.975164e-01	9.974120e-01	9.972960e-01	9.971660e-01	9.970195e-01	9.968537e-01	9.966642e-01	9.964429e-01	9.961742e-01	9.958298e-01	9.953670e-01	9.947241e-01	9.938385e-01	9.926739e-01	9.912496e-01	9.896742e-01	9.882734e-01	9.874829e-01	9.872800e-01	9.872733e-01	9.875610e-01	9.885883e-01	9.907601e-01	9.941749e-01	9.986136e-01	1.003696e+00	1.009089e+00	1.014505e+00	1.019210e+00	1.022007e+00	1.022824e+00	1.022857e+00	1.022195e+00	1.019635e+00	1.014266e+00	1.007306e+00	1.001813e+00	9.991546e-01	9.982915e-01	9.981058e-01	9.982377e-01	9.990254e-01	1.001639e+00	1.007123e+00	1.013911e+00	1.018897e+00	1.021050e+00	1.021377e+00	1.021038e+00	1.019656e+00	1.016020e+00	1.010488e+00	1.004165e+00	9.975874e-01	9.910971e-01	9.852058e-01	9.805053e-01	9.775345e-01	9.764280e-01	9.759955e-01	9.986481e-01	9.986482e-01	9.986558e-01	9.986512e-01	9.986486e-01	9.986451e-01	9.986415e-01	9.986375e-01	9.986347e-01	9.986336e-01	9.986294e-01	9.986188e-01	9.986026e-01	9.985840e-01	9.985661e-01	9.985498e-01	9.985354e-01	9.985208e-01	9.985120e-01	9.985022e-01	9.984896e-01	9.984744e-01	9.984498e-01	9.984262e-01	9.984008e-01	9.983766e-01	9.983494e-01	9.983201e-01	9.982887e-01	9.982547e-01	9.982172e-01	9.981760e-01	9.981308e-01	9.980810e-01	9.980268e-01	9.979682e-01	9.979052e-01	9.978375e-01	9.977645e-01	9.976854e-01	9.975992e-01	9.975045e-01	9.973997e-01	9.972827e-01	9.971512e-01	9.970026e-01	9.968335e-01	9.966391e-01	9.964106e-01	9.961302e-01	9.957678e-01	9.952789e-01	9.946073e-01	9.936954e-01	9.925074e-01	9.910575e-01	9.894924e-01	9.882191e-01	9.876056e-01	9.874677e-01	9.874873e-01	9.878395e-01	9.889551e-01	9.911945e-01	9.946129e-01	9.989785e-01	1.003975e+00	1.009346e+00	1.014757e+00	1.019265e+00	1.021743e+00	1.022397e+00	1.022409e+00	1.021723e+00	1.019192e+00	1.013999e+00	1.007326e+00	1.001984e+00	9.992843e-01	9.983437e-01	9.981224e-01	9.982665e-01	9.991142e-01	1.001764e+00	1.007107e+00	1.013638e+00	1.018451e+00	1.020562e+00	1.020903e+00	1.020581e+00	1.019383e+00	1.016036e+00	1.010637e+00	1.004289e+00	9.977240e-01	9.913022e-01	9.854710e-01	9.808300e-01	9.779763e-01	9.768680e-01	9.764133e-01	9.986456e-01	9.986456e-01	9.986518e-01	9.986480e-01	9.986452e-01	9.986415e-01	9.986377e-01	9.986342e-01	9.986317e-01	9.986296e-01	9.986239e-01	9.986122e-01	9.985955e-01	9.985774e-01	9.985606e-01	9.985446e-01	9.985304e-01	9.985166e-01	9.985072e-01	9.984964e-01	9.984840e-01	9.984688e-01	9.984444e-01	9.984210e-01	9.983954e-01	9.983713e-01	9.983442e-01	9.983147e-01	9.982827e-01	9.982480e-01	9.982098e-01	9.981679e-01	9.981220e-01	9.980715e-01	9.980166e-01	9.979573e-01	9.978935e-01	9.978251e-01	9.977515e-01	9.976721e-01	9.975857e-01	9.974905e-01	9.973847e-01	9.972662e-01	9.971326e-01	9.969812e-01	9.968085e-01	9.966088e-01	9.963712e-01	9.960760e-01	9.956917e-01	9.951706e-01	9.944599e-01	9.935114e-01	9.922893e-01	9.908099e-01	9.892956e-01	9.882048e-01	9.877653e-01	9.876855e-01	9.877404e-01	9.881765e-01	9.894039e-01	9.917211e-01	9.951356e-01	9.994202e-01	1.004337e+00	1.009702e+00	1.015033e+00	1.019253e+00	1.021409e+00	1.021913e+00	1.021897e+00	1.021169e+00	1.018639e+00	1.013628e+00	1.007314e+00	1.002194e+00	9.994630e-01	9.984212e-01	9.981537e-01	9.983170e-01	9.992397e-01	1.001919e+00	1.007054e+00	1.013251e+00	1.017899e+00	1.020000e+00	1.020363e+00	1.020055e+00	1.019003e+00	1.015976e+00	1.010807e+00	1.004486e+00	9.979024e-01	9.915300e-01	9.857939e-01	9.812864e-01	9.785554e-01	9.774141e-01	9.769124e-01	9.986387e-01	9.986410e-01	9.986455e-01	9.986423e-01	9.986387e-01	9.986355e-01	9.986323e-01	9.986298e-01	9.986274e-01	9.986246e-01	9.986177e-01	9.986053e-01	9.985891e-01	9.985723e-01	9.985565e-01	9.985413e-01	9.985266e-01	9.985133e-01	9.985019e-01	9.984912e-01	9.984791e-01	9.984616e-01	9.984380e-01	9.984146e-01	9.983898e-01	9.983648e-01	9.983374e-01	9.983074e-01	9.982748e-01	9.982390e-01	9.981998e-01	9.981574e-01	9.981110e-01	9.980600e-01	9.980046e-01	9.979445e-01	9.978799e-01	9.978107e-01	9.977365e-01	9.976565e-01	9.975692e-01	9.974728e-01	9.973652e-01	9.972443e-01	9.971077e-01	9.969530e-01	9.967762e-01	9.965704e-01	9.963221e-01	9.960095e-01	9.955971e-01	9.950400e-01	9.942873e-01	9.932891e-01	9.920108e-01	9.905140e-01	9.891111e-01	9.882450e-01	9.879606e-01	9.879289e-01	9.880382e-01	9.885821e-01	9.899404e-01	9.923376e-01	9.957353e-01	9.999436e-01	1.004806e+00	1.010131e+00	1.015300e+00	1.019169e+00	1.020988e+00	1.021372e+00	1.021321e+00	1.020530e+00	1.017984e+00	1.013182e+00	1.007278e+00	1.002432e+00	9.996841e-01	9.985273e-01	9.982025e-01	9.983883e-01	9.994025e-01	1.002099e+00	1.006971e+00	1.012774e+00	1.017238e+00	1.019352e+00	1.019757e+00	1.019464e+00	1.018535e+00	1.015826e+00	1.010955e+00	1.004729e+00	9.981297e-01	9.917881e-01	9.861911e-01	9.818835e-01	9.792629e-01	9.780600e-01	9.774925e-01	9.986324e-01	9.986374e-01	9.986390e-01	9.986371e-01	9.986326e-01	9.986283e-01	9.986259e-01	9.986240e-01	9.986210e-01	9.986166e-01	9.986085e-01	9.985961e-01	9.985813e-01	9.985664e-01	9.985514e-01	9.985366e-01	9.985223e-01	9.985085e-01	9.984968e-01	9.984861e-01	9.984727e-01	9.984546e-01	9.984323e-01	9.984074e-01	9.983838e-01	9.983577e-01	9.983297e-01	9.982990e-01	9.982653e-01	9.982284e-01	9.981886e-01	9.981452e-01	9.980982e-01	9.980464e-01	9.979906e-01	9.979301e-01	9.978650e-01	9.977953e-01	9.977204e-01	9.976395e-01	9.975510e-01	9.974527e-01	9.973425e-01	9.972181e-01	9.970777e-01	9.969186e-01	9.967365e-01	9.965227e-01	9.962609e-01	9.959256e-01	9.954804e-01	9.948805e-01	9.940765e-01	9.930156e-01	9.916761e-01	9.901917e-01	9.889611e-01	9.883437e-01	9.881958e-01	9.881987e-01	9.883843e-01	9.890654e-01	9.905687e-01	9.930417e-01	9.964143e-01	1.000553e+00	1.005363e+00	1.010603e+00	1.015535e+00	1.019005e+00	1.020500e+00	1.020769e+00	1.020677e+00	1.019810e+00	1.017244e+00	1.012679e+00	1.007227e+00	1.002689e+00	9.999387e-01	9.986606e-01	9.982670e-01	9.984821e-01	9.995967e-01	1.002298e+00	1.006868e+00	1.012231e+00	1.016478e+00	1.018611e+00	1.019078e+00	1.018804e+00	1.017987e+00	1.015591e+00	1.011036e+00	1.004973e+00	9.983912e-01	9.921026e-01	9.866971e-01	9.826319e-01	9.800947e-01	9.788063e-01	9.781540e-01	9.986286e-01	9.986326e-01	9.986324e-01	9.986315e-01	9.986263e-01	9.986220e-01	9.986196e-01	9.986176e-01	9.986134e-01	9.986072e-01	9.985979e-01	9.985860e-01	9.985726e-01	9.985586e-01	9.985447e-01	9.985300e-01	9.985149e-01	9.985019e-01	9.984888e-01	9.984772e-01	9.984641e-01	9.984457e-01	9.984233e-01	9.984015e-01	9.983763e-01	9.983499e-01	9.983212e-01	9.982899e-01	9.982556e-01	9.982180e-01	9.981769e-01	9.981322e-01	9.980842e-01	9.980314e-01	9.979749e-01	9.979140e-01	9.978484e-01	9.977780e-01	9.977023e-01	9.976201e-01	9.975298e-01	9.974292e-01	9.973160e-01	9.971879e-01	9.970432e-01	9.968791e-01	9.966904e-01	9.964666e-01	9.961878e-01	9.958255e-01	9.953415e-01	9.946910e-01	9.938226e-01	9.926839e-01	9.912874e-01	9.898683e-01	9.888722e-01	9.884975e-01	9.884523e-01	9.884962e-01	9.887887e-01	9.896323e-01	9.912879e-01	9.938297e-01	9.971759e-01	1.001250e+00	1.005988e+00	1.011087e+00	1.015716e+00	1.018762e+00	1.019936e+00	1.020111e+00	1.019969e+00	1.019013e+00	1.016441e+00	1.012144e+00	1.007169e+00	1.002957e+00	1.000220e+00	9.988174e-01	9.983481e-01	9.985966e-01	9.998163e-01	1.002508e+00	1.006757e+00	1.011650e+00	1.015640e+00	1.017780e+00	1.018320e+00	1.018068e+00	1.017347e+00	1.015239e+00	1.011024e+00	1.005169e+00	9.986669e-01	9.925010e-01	9.873471e-01	9.835426e-01	9.810465e-01	9.796583e-01	9.789066e-01	9.986237e-01	9.986262e-01	9.986250e-01	9.986244e-01	9.986194e-01	9.986150e-01	9.986121e-01	9.986094e-01	9.986041e-01	9.985967e-01	9.985869e-01	9.985753e-01	9.985634e-01	9.985503e-01	9.985363e-01	9.985213e-01	9.985063e-01	9.984923e-01	9.984793e-01	9.984666e-01	9.984527e-01	9.984349e-01	9.984148e-01	9.983915e-01	9.983666e-01	9.983401e-01	9.983112e-01	9.982793e-01	9.982447e-01	9.982067e-01	9.981643e-01	9.981185e-01	9.980691e-01	9.980153e-01	9.979581e-01	9.978966e-01	9.978304e-01	9.977590e-01	9.976818e-01	9.975975e-01	9.975048e-01	9.974013e-01	9.972847e-01	9.971526e-01	9.970032e-01	9.968334e-01	9.966366e-01	9.963995e-01	9.961003e-01	9.957061e-01	9.951770e-01	9.944658e-01	9.935178e-01	9.922904e-01	9.908569e-01	9.895698e-01	9.888817e-01	9.887155e-01	9.887185e-01	9.888309e-01	9.892661e-01	9.902897e-01	9.920949e-01	9.946985e-01	9.980199e-01	1.002024e+00	1.006658e+00	1.011559e+00	1.015819e+00	1.018417e+00	1.019298e+00	1.019391e+00	1.019199e+00	1.018146e+00	1.015595e+00	1.011599e+00	1.007112e+00	1.003232e+00	1.000518e+00	9.989933e-01	9.984432e-01	9.987294e-01	1.000054e+00	1.002723e+00	1.006641e+00	1.011050e+00	1.014750e+00	1.016870e+00	1.017482e+00	1.017255e+00	1.016603e+00	1.014764e+00	1.010898e+00	1.005288e+00	9.989452e-01	9.930030e-01	9.881662e-01	9.846148e-01	9.821133e-01	9.806277e-01	9.797764e-01	9.986177e-01	9.986175e-01	9.986169e-01	9.986163e-01	9.986114e-01	9.986065e-01	9.986025e-01	9.985992e-01	9.985933e-01	9.985854e-01	9.985757e-01	9.985654e-01	9.985540e-01	9.985418e-01	9.985283e-01	9.985136e-01	9.984984e-01	9.984834e-01	9.984694e-01	9.984550e-01	9.984398e-01	9.984224e-01	9.984025e-01	9.983804e-01	9.983552e-01	9.983284e-01	9.982984e-01	9.982662e-01	9.982311e-01	9.981922e-01	9.981493e-01	9.981024e-01	9.980521e-01	9.979977e-01	9.979400e-01	9.978780e-01	9.978112e-01	9.977386e-01	9.976593e-01	9.975723e-01	9.974761e-01	9.973687e-01	9.972481e-01	9.971115e-01	9.969567e-01	9.967801e-01	9.965730e-01	9.963197e-01	9.959949e-01	9.955632e-01	9.949811e-01	9.941968e-01	9.931515e-01	9.918274e-01	9.904042e-01	9.893630e-01	9.889892e-01	9.889571e-01	9.889987e-01	9.892220e-01	9.898310e-01	9.910440e-01	9.929874e-01	9.956448e-01	9.989429e-01	1.002863e+00	1.007352e+00	1.011988e+00	1.015817e+00	1.017960e+00	1.018585e+00	1.018623e+00	1.018360e+00	1.017223e+00	1.014726e+00	1.011067e+00	1.007068e+00	1.003508e+00	1.000827e+00	9.991850e-01	9.985507e-01	9.988760e-01	1.000304e+00	1.002939e+00	1.006527e+00	1.010449e+00	1.013828e+00	1.015895e+00	1.016569e+00	1.016365e+00	1.015748e+00	1.014130e+00	1.010613e+00	1.005302e+00	9.992274e-01	9.936319e-01	9.891664e-01	9.858250e-01	9.832919e-01	9.817401e-01	9.807894e-01	9.986090e-01	9.986069e-01	9.986073e-01	9.986066e-01	9.986017e-01	9.985961e-01	9.985911e-01	9.985874e-01	9.985815e-01	9.985739e-01	9.985647e-01	9.985546e-01	9.985442e-01	9.985322e-01	9.985196e-01	9.985054e-01	9.984902e-01	9.984749e-01	9.984597e-01	9.984448e-01	9.984291e-01	9.984117e-01	9.983916e-01	9.983690e-01	9.983437e-01	9.983155e-01	9.982847e-01	9.982514e-01	9.982151e-01	9.981746e-01	9.981309e-01	9.980834e-01	9.980322e-01	9.979774e-01	9.979194e-01	9.978572e-01	9.977900e-01	9.977163e-01	9.976349e-01	9.975446e-01	9.974442e-01	9.973321e-01	9.972066e-01	9.970651e-01	9.969043e-01	9.967187e-01	9.964986e-01	9.962249e-01	9.958692e-01	9.953926e-01	9.947465e-01	9.938715e-01	9.927089e-01	9.912934e-01	9.899871e-01	9.893114e-01	9.891745e-01	9.891941e-01	9.893140e-01	9.896876e-01	9.904959e-01	9.918988e-01	9.939642e-01	9.966641e-01	9.999383e-01	1.003757e+00	1.008041e+00	1.012341e+00	1.015687e+00	1.017390e+00	1.017804e+00	1.017798e+00	1.017460e+00	1.016254e+00	1.013855e+00	1.010566e+00	1.007039e+00	1.003785e+00	1.001141e+00	9.993855e-01	9.986668e-01	9.990308e-01	1.000558e+00	1.003153e+00	1.006424e+00	1.009869e+00	1.012897e+00	1.014871e+00	1.015581e+00	1.015400e+00	1.014776e+00	1.013311e+00	1.010122e+00	1.005196e+00	9.995268e-01	9.944212e-01	9.903374e-01	9.871314e-01	9.845812e-01	9.830202e-01	9.819996e-01	9.985982e-01	9.985952e-01	9.985963e-01	9.985950e-01	9.985902e-01	9.985845e-01	9.985794e-01	9.985750e-01	9.985696e-01	9.985614e-01	9.985526e-01	9.985432e-01	9.985328e-01	9.985218e-01	9.985097e-01	9.984967e-01	9.984817e-01	9.984653e-01	9.984486e-01	9.984316e-01	9.984143e-01	9.983978e-01	9.983786e-01	9.983562e-01	9.983305e-01	9.983021e-01	9.982702e-01	9.982350e-01	9.981963e-01	9.981551e-01	9.981098e-01	9.980613e-01	9.980098e-01	9.979546e-01	9.978961e-01	9.978334e-01	9.977655e-01	9.976906e-01	9.976070e-01	9.975134e-01	9.974085e-01	9.972913e-01	9.971603e-01	9.970132e-01	9.968457e-01	9.966500e-01	9.964137e-01	9.961151e-01	9.957214e-01	9.951899e-01	9.944647e-01	9.934730e-01	9.921675e-01	9.907211e-01	9.896987e-01	9.893870e-01	9.893760e-01	9.894426e-01	9.896853e-01	9.902452e-01	9.912691e-01	9.928550e-01	9.950233e-01	9.977487e-01	1.000992e+00	1.004689e+00	1.008699e+00	1.012567e+00	1.015417e+00	1.016710e+00	1.016964e+00	1.016916e+00	1.016504e+00	1.015255e+00	1.013007e+00	1.010112e+00	1.007035e+00	1.004060e+00	1.001448e+00	9.995841e-01	9.987846e-01	9.991868e-01	1.000807e+00	1.003362e+00	1.006338e+00	1.009330e+00	1.011985e+00	1.013817e+00	1.014525e+00	1.014345e+00	1.013688e+00	1.012296e+00	1.009389e+00	1.004916e+00	9.998855e-01	9.953879e-01	9.916357e-01	9.885021e-01	9.859867e-01	9.844935e-01	9.834626e-01	9.985876e-01	9.985826e-01	9.985827e-01	9.985829e-01	9.985775e-01	9.985722e-01	9.985670e-01	9.985626e-01	9.985568e-01	9.985490e-01	9.985398e-01	9.985311e-01	9.985216e-01	9.985108e-01	9.984998e-01	9.984868e-01	9.984721e-01	9.984550e-01	9.984357e-01	9.984165e-01	9.983972e-01	9.983807e-01	9.983628e-01	9.983419e-01	9.983160e-01	9.982871e-01	9.982535e-01	9.982171e-01	9.981776e-01	9.981337e-01	9.980874e-01	9.980382e-01	9.979860e-01	9.979303e-01	9.978710e-01	9.978071e-01	9.977376e-01	9.976607e-01	9.975744e-01	9.974770e-01	9.973673e-01	9.972448e-01	9.971077e-01	9.969545e-01	9.967797e-01	9.965735e-01	9.963181e-01	9.959883e-01	9.955480e-01	9.949483e-01	9.941195e-01	9.929743e-01	9.915256e-01	9.902168e-01	9.896199e-01	9.895335e-01	9.895686e-01	9.897288e-01	9.901364e-01	9.909106e-01	9.921544e-01	9.939088e-01	9.961604e-01	9.988924e-01	1.002084e+00	1.005635e+00	1.009291e+00	1.012624e+00	1.014972e+00	1.015929e+00	1.016068e+00	1.015981e+00	1.015504e+00	1.014252e+00	1.012210e+00	1.009719e+00	1.007059e+00	1.004330e+00	1.001741e+00	9.997703e-01	9.988942e-01	9.993345e-01	1.001043e+00	1.003562e+00	1.006275e+00	1.008846e+00	1.011116e+00	1.012747e+00	1.013402e+00	1.013194e+00	1.012479e+00	1.011083e+00	1.008384e+00	1.004498e+00	1.000351e+00	9.964866e-01	9.929916e-01	9.899416e-01	9.875377e-01	9.861798e-01	9.851949e-01	9.985767e-01	9.985694e-01	9.985685e-01	9.985685e-01	9.985644e-01	9.985596e-01	9.985540e-01	9.985498e-01	9.985432e-01	9.985354e-01	9.985261e-01	9.985180e-01	9.985093e-01	9.985001e-01	9.984891e-01	9.984761e-01	9.984607e-01	9.984417e-01	9.984212