# vtk DataFile Version 3.0
vtk output
ASCII
DATASET STRUCTURED_GRID
DIMENSIONS 101 101 1
POINTS 10201 double
0.000000e+00	0.000000e+00	0.0	1.000000e-02	0.000000e+00	0.0	2.000000e-02	0.000000e+00	0.0	3.000000e-02	0.000000e+00	0.0	4.000000e-02	0.000000e+00	0.0	5.000000e-02	0.000000e+00	0.0	6.000000e-02	0.000000e+00	0.0	7.000000e-02	0.000000e+00	0.0	8.000000e-02	0.000000e+00	0.0	9.000000e-02	0.000000e+00	0.0	1.000000e-01	0.000000e+00	0.0	1.100000e-01	0.000000e+00	0.0	1.200000e-01	0.000000e+00	0.0	1.300000e-01	0.000000e+00	0.0	1.400000e-01	0.000000e+00	0.0	1.500000e-01	0.000000e+00	0.0	1.600000e-01	0.000000e+00	0.0	1.700000e-01	0.000000e+00	0.0	1.800000e-01	0.000000e+00	0.0	1.900000e-01	0.000000e+00	0.0	2.000000e-01	0.000000e+00	0.0	2.100000e-01	0.000000e+00	0.0	2.200000e-01	0.000000e+00	0.0	2.300000e-01	0.000000e+00	0.0	2.400000e-01	0.000000e+00	0.0	2.500000e-01	0.000000e+00	0.0	2.600000e-01	0.000000e+00	0.0	2.700000e-01	0.000000e+00	0.0	2.800000e-01	0.000000e+00	0.0	2.900000e-01	0.000000e+00	0.0	3.000000e-01	0.000000e+00	0.0	3.100000e-01	0.000000e+00	0.0	3.200000e-01	0.000000e+00	0.0	3.300000e-01	0.000000e+00	0.0	3.400000e-01	0.000000e+00	0.0	3.500000e-01	0.000000e+00	0.0	3.600000e-01	0.000000e+00	0.0	3.700000e-01	0.000000e+00	0.0	3.800000e-01	0.000000e+00	0.0	3.900000e-01	0.000000e+00	0.0	4.000000e-01	0.000000e+00	0.0	4.100000e-01	0.000000e+00	0.0	4.200000e-01	0.000000e+00	0.0	4.300000e-01	0.000000e+00	0.0	4.400000e-01	0.000000e+00	0.0	4.500000e-01	0.000000e+00	0.0	4.600000e-01	0.000000e+00	0.0	4.700000e-01	0.000000e+00	0.0	4.800000e-01	0.000000e+00	0.0	4.900000e-01	0.000000e+00	0.0	5.000000e-01	0.000000e+00	0.0	5.100000e-01	0.000000e+00	0.0	5.200000e-01	0.000000e+00	0.0	5.300000e-01	0.000000e+00	0.0	5.400000e-01	0.000000e+00	0.0	5.500000e-01	0.000000e+00	0.0	5.600000e-01	0.000000e+00	0.0	5.700000e-01	0.000000e+00	0.0	5.800000e-01	0.000000e+00	0.0	5.900000e-01	0.000000e+00	0.0	6.000000e-01	0.000000e+00	0.0	6.100000e-01	0.000000e+00	0.0	6.200000e-01	0.000000e+00	0.0	6.300000e-01	0.000000e+00	0.0	6.400000e-01	0.000000e+00	0.0	6.500000e-01	0.000000e+00	0.0	6.600000e-01	0.000000e+00	0.0	6.700000e-01	0.000000e+00	0.0	6.800000e-01	0.000000e+00	0.0	6.900000e-01	0.000000e+00	0.0	7.000000e-01	0.000000e+00	0.0	7.100000e-01	0.000000e+00	0.0	7.200000e-01	0.000000e+00	0.0	7.300000e-01	0.000000e+00	0.0	7.400000e-01	0.000000e+00	0.0	7.500000e-01	0.000000e+00	0.0	7.600000e-01	0.000000e+00	0.0	7.700000e-01	0.000000e+00	0.0	7.800000e-01	0.000000e+00	0.0	7.900000e-01	0.000000e+00	0.0	8.000000e-01	0.000000e+00	0.0	8.100000e-01	0.000000e+00	0.0	8.200000e-01	0.000000e+00	0.0	8.300000e-01	0.000000e+00	0.0	8.400000e-01	0.000000e+00	0.0	8.500000e-01	0.000000e+00	0.0	8.600000e-01	0.000000e+00	0.0	8.700000e-01	0.000000e+00	0.0	8.800000e-01	0.000000e+00	0.0	8.900000e-01	0.000000e+00	0.0	9.000000e-01	0.000000e+00	0.0	9.100000e-01	0.000000e+00	0.0	9.200000e-01	0.000000e+00	0.0	9.300000e-01	0.000000e+00	0.0	9.400000e-01	0.000000e+00	0.0	9.500000e-01	0.000000e+00	0.0	9.600000e-01	0.000000e+00	0.0	9.700000e-01	0.000000e+00	0.0	9.800000e-01	0.000000e+00	0.0	9.900000e-01	0.000000e+00	0.0	1.000000e+00	0.000000e+00	0.0	0.000000e+00	1.000000e-02	0.0	1.000000e-02	1.000000e-02	0.0	2.000000e-02	1.000000e-02	0.0	3.000000e-02	1.000000e-02	0.0	4.000000e-02	1.000000e-02	0.0	5.000000e-02	1.000000e-02	0.0	6.000000e-02	1.000000e-02	0.0	7.000000e-02	1.000000e-02	0.0	8.000000e-02	1.000000e-02	0.0	9.000000e-02	1.000000e-02	0.0	1.000000e-01	1.000000e-02	0.0	1.100000e-01	1.000000e-02	0.0	1.200000e-01	1.000000e-02	0.0	1.300000e-01	1.000000e-02	0.0	1.400000e-01	1.000000e-02	0.0	1.500000e-01	1.000000e-02	0.0	1.600000e-01	1.000000e-02	0.0	1.700000e-01	1.000000e-02	0.0	1.800000e-01	1.000000e-02	0.0	1.900000e-01	1.000000e-02	0.0	2.000000e-01	1.000000e-02	0.0	2.100000e-01	1.000000e-02	0.0	2.200000e-01	1.000000e-02	0.0	2.300000e-01	1.000000e-02	0.0	2.400000e-01	1.000000e-02	0.0	2.500000e-01	1.000000e-02	0.0	2.600000e-01	1.000000e-02	0.0	2.700000e-01	1.000000e-02	0.0	2.800000e-01	1.000000e-02	0.0	2.900000e-01	1.000000e-02	0.0	3.000000e-01	1.000000e-02	0.0	3.100000e-01	1.000000e-02	0.0	3.200000e-01	1.000000e-02	0.0	3.300000e-01	1.000000e-02	0.0	3.400000e-01	1.000000e-02	0.0	3.500000e-01	1.000000e-02	0.0	3.600000e-01	1.000000e-02	0.0	3.700000e-01	1.000000e-02	0.0	3.800000e-01	1.000000e-02	0.0	3.900000e-01	1.000000e-02	0.0	4.000000e-01	1.000000e-02	0.0	4.100000e-01	1.000000e-02	0.0	4.200000e-01	1.000000e-02	0.0	4.300000e-01	1.000000e-02	0.0	4.400000e-01	1.000000e-02	0.0	4.500000e-01	1.000000e-02	0.0	4.600000e-01	1.000000e-02	0.0	4.700000e-01	1.000000e-02	0.0	4.800000e-01	1.000000e-02	0.0	4.900000e-01	1.000000e-02	0.0	5.000000e-01	1.000000e-02	0.0	5.100000e-01	1.000000e-02	0.0	5.200000e-01	1.000000e-02	0.0	5.300000e-01	1.000000e-02	0.0	5.400000e-01	1.000000e-02	0.0	5.500000e-01	1.000000e-02	0.0	5.600000e-01	1.000000e-02	0.0	5.700000e-01	1.000000e-02	0.0	5.800000e-01	1.000000e-02	0.0	5.900000e-01	1.000000e-02	0.0	6.000000e-01	1.000000e-02	0.0	6.100000e-01	1.000000e-02	0.0	6.200000e-01	1.000000e-02	0.0	6.300000e-01	1.000000e-02	0.0	6.400000e-01	1.000000e-02	0.0	6.500000e-01	1.000000e-02	0.0	6.600000e-01	1.000000e-02	0.0	6.700000e-01	1.000000e-02	0.0	6.800000e-01	1.000000e-02	0.0	6.900000e-01	1.000000e-02	0.0	7.000000e-01	1.000000e-02	0.0	7.100000e-01	1.000000e-02	0.0	7.200000e-01	1.000000e-02	0.0	7.300000e-01	1.000000e-02	0.0	7.400000e-01	1.000000e-02	0.0	7.500000e-01	1.000000e-02	0.0	7.600000e-01	1.000000e-02	0.0	7.700000e-01	1.000000e-02	0.0	7.800000e-01	1.000000e-02	0.0	7.900000e-01	1.000000e-02	0.0	8.000000e-01	1.000000e-02	0.0	8.100000e-01	1.000000e-02	0.0	8.200000e-01	1.000000e-02	0.0	8.300000e-01	1.000000e-02	0.0	8.400000e-01	1.000000e-02	0.0	8.500000e-01	1.000000e-02	0.0	8.600000e-01	1.000000e-02	0.0	8.700000e-01	1.000000e-02	0.0	8.800000e-01	1.000000e-02	0.0	8.900000e-01	1.000000e-02	0.0	9.000000e-01	1.000000e-02	0.0	9.100000e-01	1.000000e-02	0.0	9.200000e-01	1.000000e-02	0.0	9.300000e-01	1.000000e-02	0.0	9.400000e-01	1.000000e-02	0.0	9.500000e-01	1.000000e-02	0.0	9.600000e-01	1.000000e-02	0.0	9.700000e-01	1.000000e-02	0.0	9.800000e-01	1.000000e-02	0.0	9.900000e-01	1.000000e-02	0.0	1.000000e+00	1.000000e-02	0.0	0.000000e+00	2.000000e-02	0.0	1.000000e-02	2.000000e-02	0.0	2.000000e-02	2.000000e-02	0.0	3.000000e-02	2.000000e-02	0.0	4.000000e-02	2.000000e-02	0.0	5.000000e-02	2.000000e-02	0.0	6.000000e-02	2.000000e-02	0.0	7.000000e-02	2.000000e-02	0.0	8.000000e-02	2.000000e-02	0.0	9.000000e-02	2.000000e-02	0.0	1.000000e-01	2.000000e-02	0.0	1.100000e-01	2.000000e-02	0.0	1.200000e-01	2.000000e-02	0.0	1.300000e-01	2.000000e-02	0.0	1.400000e-01	2.000000e-02	0.0	1.500000e-01	2.000000e-02	0.0	1.600000e-01	2.000000e-02	0.0	1.700000e-01	2.000000e-02	0.0	1.800000e-01	2.000000e-02	0.0	1.900000e-01	2.000000e-02	0.0	2.000000e-01	2.000000e-02	0.0	2.100000e-01	2.000000e-02	0.0	2.200000e-01	2.000000e-02	0.0	2.300000e-01	2.000000e-02	0.0	2.400000e-01	2.000000e-02	0.0	2.500000e-01	2.000000e-02	0.0	2.600000e-01	2.000000e-02	0.0	2.700000e-01	2.000000e-02	0.0	2.800000e-01	2.000000e-02	0.0	2.900000e-01	2.000000e-02	0.0	3.000000e-01	2.000000e-02	0.0	3.100000e-01	2.000000e-02	0.0	3.200000e-01	2.000000e-02	0.0	3.300000e-01	2.000000e-02	0.0	3.400000e-01	2.000000e-02	0.0	3.500000e-01	2.000000e-02	0.0	3.600000e-01	2.000000e-02	0.0	3.700000e-01	2.000000e-02	0.0	3.800000e-01	2.000000e-02	0.0	3.900000e-01	2.000000e-02	0.0	4.000000e-01	2.000000e-02	0.0	4.100000e-01	2.000000e-02	0.0	4.200000e-01	2.000000e-02	0.0	4.300000e-01	2.000000e-02	0.0	4.400000e-01	2.000000e-02	0.0	4.500000e-01	2.000000e-02	0.0	4.600000e-01	2.000000e-02	0.0	4.700000e-01	2.000000e-02	0.0	4.800000e-01	2.000000e-02	0.0	4.900000e-01	2.000000e-02	0.0	5.000000e-01	2.000000e-02	0.0	5.100000e-01	2.000000e-02	0.0	5.200000e-01	2.000000e-02	0.0	5.300000e-01	2.000000e-02	0.0	5.400000e-01	2.000000e-02	0.0	5.500000e-01	2.000000e-02	0.0	5.600000e-01	2.000000e-02	0.0	5.700000e-01	2.000000e-02	0.0	5.800000e-01	2.000000e-02	0.0	5.900000e-01	2.000000e-02	0.0	6.000000e-01	2.000000e-02	0.0	6.100000e-01	2.000000e-02	0.0	6.200000e-01	2.000000e-02	0.0	6.300000e-01	2.000000e-02	0.0	6.400000e-01	2.000000e-02	0.0	6.500000e-01	2.000000e-02	0.0	6.600000e-01	2.000000e-02	0.0	6.700000e-01	2.000000e-02	0.0	6.800000e-01	2.000000e-02	0.0	6.900000e-01	2.000000e-02	0.0	7.000000e-01	2.000000e-02	0.0	7.100000e-01	2.000000e-02	0.0	7.200000e-01	2.000000e-02	0.0	7.300000e-01	2.000000e-02	0.0	7.400000e-01	2.000000e-02	0.0	7.500000e-01	2.000000e-02	0.0	7.600000e-01	2.000000e-02	0.0	7.700000e-01	2.000000e-02	0.0	7.800000e-01	2.000000e-02	0.0	7.900000e-01	2.000000e-02	0.0	8.000000e-01	2.000000e-02	0.0	8.100000e-01	2.000000e-02	0.0	8.200000e-01	2.000000e-02	0.0	8.300000e-01	2.000000e-02	0.0	8.400000e-01	2.000000e-02	0.0	8.500000e-01	2.000000e-02	0.0	8.600000e-01	2.000000e-02	0.0	8.700000e-01	2.000000e-02	0.0	8.800000e-01	2.000000e-02	0.0	8.900000e-01	2.000000e-02	0.0	9.000000e-01	2.000000e-02	0.0	9.100000e-01	2.000000e-02	0.0	9.200000e-01	2.000000e-02	0.0	9.300000e-01	2.000000e-02	0.0	9.400000e-01	2.000000e-02	0.0	9.500000e-01	2.000000e-02	0.0	9.600000e-01	2.000000e-02	0.0	9.700000e-01	2.000000e-02	0.0	9.800000e-01	2.000000e-02	0.0	9.900000e-01	2.000000e-02	0.0	1.000000e+00	2.000000e-02	0.0	0.000000e+00	3.000000e-02	0.0	1.000000e-02	3.000000e-02	0.0	2.000000e-02	3.000000e-02	0.0	3.000000e-02	3.000000e-02	0.0	4.000000e-02	3.000000e-02	0.0	5.000000e-02	3.000000e-02	0.0	6.000000e-02	3.000000e-02	0.0	7.000000e-02	3.000000e-02	0.0	8.000000e-02	3.000000e-02	0.0	9.000000e-02	3.000000e-02	0.0	1.000000e-01	3.000000e-02	0.0	1.100000e-01	3.000000e-02	0.0	1.200000e-01	3.000000e-02	0.0	1.300000e-01	3.000000e-02	0.0	1.400000e-01	3.000000e-02	0.0	1.500000e-01	3.000000e-02	0.0	1.600000e-01	3.000000e-02	0.0	1.700000e-01	3.000000e-02	0.0	1.800000e-01	3.000000e-02	0.0	1.900000e-01	3.000000e-02	0.0	2.000000e-01	3.000000e-02	0.0	2.100000e-01	3.000000e-02	0.0	2.200000e-01	3.000000e-02	0.0	2.300000e-01	3.000000e-02	0.0	2.400000e-01	3.000000e-02	0.0	2.500000e-01	3.000000e-02	0.0	2.600000e-01	3.000000
[...]
POINT_DATA 10201

SCALARS Height double 1
LOOKUP_TABLE default
9.995588e-01	9.995677e-01	9.995705e-01	9.995705e-01	9.995707e-01	9.995713e-01	9.995712e-01	9.995686e-01	9.995663e-01	9.995646e-01	9.995626e-01	9.995595e-01	9.995553e-01	9.995506e-01	9.995471e-01	9.995476e-01	9.995588e-01	9.995987e-01	9.997076e-01	9.999841e-01	1.000651e+00	1.002178e+00	1.005005e+00	1.008839e+00	1.012491e+00	1.014790e+00	1.015674e+00	1.015793e+00	1.015518e+00	1.014624e+00	1.012807e+00	1.010039e+00	1.006693e+00	1.003172e+00	9.998605e-01	9.969921e-01	9.947006e-01	9.930717e-01	9.921042e-01	9.916851e-01	9.916100e-01	9.916472e-01	9.918212e-01	9.922311e-01	9.929450e-01	9.938716e-01	9.948241e-01	9.956555e-01	9.963118e-01	9.968049e-01	9.971682e-01	9.974325e-01	9.976193e-01	9.977428e-01	9.978161e-01	9.978559e-01	9.978804e-01	9.979140e-01	9.980046e-01	9.982373e-01	9.988303e-01	1.000246e+00	1.002995e+00	1.006928e+00	1.010912e+00	1.013571e+00	1.014692e+00	1.014893e+00	1.014714e+00	1.013955e+00	1.012314e+00	1.009719e+00	1.006493e+00	1.003024e+00	9.996902e-01	9.967460e-01	9.943405e-01	9.925768e-01	9.914744e-01	9.909459e-01	9.908052e-01	9.908116e-01	9.909441e-01	9.912915e-01	9.919300e-01	9.928216e-01	9.937808e-01	9.946346e-01	9.953056e-01	9.957931e-01	9.961335e-01	9.963694e-01	9.965372e-01	9.966608e-01	9.967549e-01	9.968274e-01	9.968826e-01	9.969230e-01	9.969512e-01	9.969670e-01	9.969743e-01	9.995659e-01	9.995745e-01	9.995693e-01	9.995688e-01	9.995690e-01	9.995701e-01	9.995706e-01	9.995703e-01	9.995700e-01	9.995693e-01	9.995678e-01	9.995653e-01	9.995608e-01	9.995543e-01	9.995471e-01	9.995426e-01	9.995459e-01	9.995686e-01	9.996228e-01	9.997925e-01	1.000375e+00	1.001976e+00	1.005053e+00	1.009074e+00	1.012660e+00	1.014851e+00	1.015688e+00	1.015801e+00	1.015650e+00	1.014790e+00	1.012878e+00	1.010021e+00	1.006590e+00	1.003051e+00	9.997433e-01	9.968719e-01	9.945937e-01	9.930048e-01	9.920859e-01	9.916896e-01	9.915916e-01	9.916052e-01	9.917505e-01	9.921801e-01	9.929235e-01	9.938689e-01	9.948285e-01	9.956600e-01	9.963142e-01	9.968052e-01	9.971671e-01	9.974303e-01	9.976155e-01	9.977368e-01	9.978077e-01	9.978446e-01	9.978641e-01	9.978811e-01	9.979161e-01	9.980540e-01	9.985635e-01	1.000017e+00	1.002992e+00	1.007161e+00	1.011093e+00	1.013635e+00	1.014700e+00	1.014899e+00	1.014813e+00	1.014110e+00	1.012391e+00	1.009715e+00	1.006401e+00	1.002902e+00	9.995689e-01	9.966198e-01	9.942238e-01	9.924943e-01	9.914415e-01	9.909469e-01	9.907939e-01	9.907788e-01	9.908728e-01	9.912290e-01	9.919068e-01	9.928173e-01	9.937827e-01	9.946382e-01	9.953075e-01	9.957925e-01	9.961305e-01	9.963647e-01	9.965308e-01	9.966531e-01	9.967459e-01	9.968174e-01	9.968716e-01	9.969113e-01	9.969393e-01	9.969551e-01	9.969615e-01	9.995726e-01	9.995800e-01	9.995751e-01	9.995750e-01	9.995748e-01	9.995749e-01	9.995747e-01	9.995739e-01	9.995722e-01	9.995719e-01	9.995711e-01	9.995690e-01	9.995646e-01	9.995580e-01	9.995507e-01	9.995457e-01	9.995484e-01	9.995691e-01	9.996226e-01	9.997904e-01	1.000396e+00	1.002078e+00	1.005233e+00	1.009223e+00	1.012665e+00	1.014747e+00	1.015578e+00	1.015717e+00	1.015615e+00	1.014824e+00	1.012850e+00	1.009950e+00	1.006580e+00	1.003125e+00	9.998537e-01	9.970006e-01	9.947359e-01	9.931427e-01	9.921957e-01	9.917602e-01	9.916372e-01	9.916377e-01	9.917559e-01	9.921874e-01	9.929510e-01	9.938942e-01	9.948391e-01	9.956594e-01	9.963091e-01	9.967996e-01	9.971629e-01	9.974282e-01	9.976148e-01	9.977368e-01	9.978072e-01	9.978429e-01	9.978612e-01	9.978778e-01	9.979162e-01	9.980610e-01	9.985915e-01	1.000110e+00	1.003179e+00	1.007339e+00	1.011132e+00	1.013553e+00	1.014594e+00	1.014819e+00	1.014760e+00	1.014140e+00	1.012385e+00	1.009653e+00	1.006382e+00	1.002961e+00	9.996710e-01	9.967443e-01	9.943635e-01	9.926334e-01	9.915569e-01	9.910230e-01	9.908398e-01	9.908156e-01	9.908811e-01	9.912310e-01	9.919315e-01	9.928454e-01	9.937942e-01	9.946359e-01	9.952988e-01	9.957823e-01	9.961218e-01	9.963588e-01	9.965277e-01	9.966520e-01	9.967457e-01	9.968174e-01	9.968720e-01	9.969131e-01	9.969432e-01	9.969609e-01	9.969678e-01	9.995717e-01	9.995776e-01	9.995752e-01	9.995750e-01	9.995746e-01	9.995740e-01	9.995733e-01	9.995723e-01	9.995721e-01	9.995725e-01	9.995725e-01	9.995711e-01	9.995673e-01	9.995607e-01	9.995526e-01	9.995474e-01	9.995488e-01	9.995667e-01	9.996138e-01	9.997588e-01	1.000333e+00	1.002036e+00	1.005267e+00	1.009292e+00	1.012703e+00	1.014718e+00	1.015522e+00	1.015665e+00	1.015582e+00	1.014881e+00	1.012915e+00	1.009947e+00	1.006567e+00	1.003136e+00	9.998975e-01	9.970602e-01	9.948009e-01	9.932037e-01	9.922499e-01	9.918058e-01	9.916762e-01	9.916748e-01	9.917682e-01	9.921698e-01	9.929387e-01	9.938876e-01	9.948254e-01	9.956403e-01	9.962905e-01	9.967838e-01	9.971500e-01	9.974173e-01	9.976049e-01	9.977265e-01	9.977968e-01	9.978329e-01	9.978521e-01	9.978687e-01	9.979034e-01	9.980340e-01	9.985422e-01	1.000070e+00	1.003203e+00	1.007407e+00	1.011177e+00	1.013526e+00	1.014531e+00	1.014760e+00	1.014714e+00	1.014178e+00	1.012455e+00	1.009657e+00	1.006367e+00	1.002968e+00	9.997076e-01	9.967985e-01	9.944242e-01	9.926923e-01	9.916090e-01	9.910679e-01	9.908826e-01	9.908560e-01	9.909030e-01	9.912153e-01	9.919162e-01	9.928411e-01	9.937833e-01	9.946163e-01	9.952785e-01	9.957651e-01	9.961083e-01	9.963486e-01	9.965196e-01	9.966442e-01	9.967373e-01	9.968087e-01	9.968645e-01	9.969076e-01	9.969393e-01	9.969576e-01	9.969666e-01	9.995750e-01	9.995807e-01	9.995774e-01	9.995769e-01	9.995755e-01	9.995751e-01	9.995744e-01	9.995729e-01	9.995722e-01	9.995727e-01	9.995727e-01	9.995713e-01	9.995677e-01	9.995616e-01	9.995541e-01	9.995487e-01	9.995495e-01	9.995651e-01	9.996081e-01	9.997413e-01	1.000292e+00	1.001989e+00	1.005256e+00	1.009297e+00	1.012689e+00	1.014676e+00	1.015462e+00	1.015606e+00	1.015532e+00	1.014905e+00	1.013010e+00	1.010000e+00	1.006587e+00	1.003180e+00	9.999716e-01	9.971543e-01	9.948961e-01	9.932893e-01	9.923233e-01	9.918684e-01	9.917311e-01	9.917257e-01	9.917995e-01	9.921578e-01	9.929124e-01	9.938694e-01	9.948049e-01	9.956145e-01	9.962664e-01	9.967664e-01	9.971392e-01	9.974103e-01	9.975991e-01	9.977213e-01	9.977928e-01	9.978304e-01	9.978503e-01	9.978663e-01	9.978983e-01	9.980210e-01	9.985133e-01	1.000034e+00	1.003194e+00	1.007414e+00	1.011162e+00	1.013474e+00	1.014457e+00	1.014686e+00	1.014651e+00	1.014186e+00	1.012546e+00	1.009720e+00	1.006388e+00	1.003006e+00	9.997758e-01	9.968878e-01	9.945168e-01	9.927770e-01	9.916828e-01	9.911322e-01	9.909386e-01	9.909091e-01	9.909433e-01	9.912135e-01	9.918900e-01	9.928214e-01	9.937637e-01	9.945884e-01	9.952496e-01	9.957427e-01	9.960936e-01	9.963397e-01	9.965138e-01	9.966400e-01	9.967342e-01	9.968070e-01	9.968641e-01	9.969076e-01	9.969385e-01	9.969558e-01	9.969655e-01	9.995793e-01	9.995860e-01	9.995800e-01	9.995789e-01	9.995772e-01	9.995758e-01	9.995750e-01	9.995743e-01	9.995732e-01	9.995720e-01	9.995711e-01	9.995693e-01	9.995660e-01	9.995608e-01	9.995544e-01	9.995492e-01	9.995502e-01	9.995642e-01	9.996032e-01	9.997308e-01	1.000268e+00	1.001946e+00	1.005213e+00	1.009268e+00	1.012631e+00	1.014592e+00	1.015370e+00	1.015520e+00	1.015457e+00	1.014898e+00	1.013105e+00	1.010112e+00	1.006659e+00	1.003252e+00	1.000074e+00	9.972733e-01	9.950096e-01	9.933881e-01	9.924049e-01	9.919346e-01	9.917870e-01	9.917750e-01	9.918314e-01	9.921431e-01	9.928660e-01	9.938291e-01	9.947730e-01	9.955819e-01	9.962355e-01	9.967435e-01	9.971245e-01	9.974011e-01	9.975931e-01	9.977177e-01	9.977910e-01	9.978293e-01	9.978491e-01	9.978639e-01	9.978935e-01	9.980123e-01	9.984966e-01	1.000009e+00	1.003168e+00	1.007390e+00	1.011104e+00	1.013390e+00	1.014365e+00	1.014595e+00	1.014564e+00	1.014156e+00	1.012626e+00	1.009836e+00	1.006464e+00	1.003071e+00	9.998688e-01	9.970001e-01	9.946269e-01	9.928745e-01	9.917651e-01	9.912002e-01	9.909954e-01	9.909598e-01	9.909837e-01	9.912126e-01	9.918471e-01	9.927769e-01	9.937283e-01	9.945527e-01	9.952135e-01	9.957136e-01	9.960746e-01	9.963287e-01	9.965079e-01	9.966377e-01	9.967349e-01	9.968097e-01	9.968670e-01	9.969091e-01	9.969377e-01	9.969527e-01	9.969622e-01	9.995800e-01	9.995860e-01	9.995805e-01	9.995798e-01	9.995779e-01	9.995765e-01	9.995749e-01	9.995734e-01	9.995719e-01	9.995703e-01	9.995683e-01	9.995662e-01	9.995633e-01	9.995590e-01	9.995536e-01	9.995490e-01	9.995505e-01	9.995627e-01	9.995981e-01	9.997248e-01	1.000258e+00	1.001911e+00	1.005156e+00	1.009199e+00	1.012544e+00	1.014484e+00	1.015258e+00	1.015409e+00	1.015352e+00	1.014850e+00	1.013170e+00	1.010250e+00	1.006782e+00	1.003357e+00	1.000200e+00	9.974173e-01	9.951478e-01	9.935065e-01	9.924981e-01	9.920030e-01	9.918374e-01	9.918185e-01	9.918583e-01	9.921228e-01	9.928002e-01	9.937624e-01	9.947260e-01	9.955445e-01	9.962015e-01	9.967145e-01	9.971029e-01	9.973864e-01	9.975840e-01	9.977123e-01	9.977872e-01	9.978258e-01	9.978446e-01	9.978577e-01	9.978861e-01	9.980048e-01	9.984875e-01	9.999906e-01	1.003131e+00	1.007326e+00	1.011013e+00	1.013275e+00	1.014248e+00	1.014485e+00	1.014460e+00	1.014091e+00	1.012671e+00	1.009967e+00	1.006590e+00	1.003174e+00	9.999877e-01	9.971374e-01	9.947626e-01	9.929935e-01	9.918611e-01	9.912720e-01	9.910484e-01	9.910041e-01	9.910161e-01	9.912050e-01	9.917883e-01	9.927054e-01	9.936736e-01	9.945102e-01	9.951736e-01	9.956780e-01	9.960475e-01	9.963107e-01	9.964975e-01	9.966332e-01	9.967343e-01	9.968110e-01	9.968680e-01	9.969079e-01	9.969340e-01	9.969470e-01	9.969560e-01	9.995744e-01	9.995824e-01	9.995778e-01	9.995776e-01	9.995762e-01	9.995750e-01	9.995732e-01	9.995708e-01	9.995694e-01	9.995675e-01	9.995656e-01	9.995637e-01	9.995611e-01	9.995574e-01	9.995529e-01	9.995490e-01	9.995503e-01	9.995604e-01	9.995932e-01	9.997217e-01	1.000253e+00	1.001877e+00	1.005085e+00	1.009103e+00	1.012431e+00	1.014356e+00	1.015125e+00	1.015283e+00	1.015235e+00	1.014777e+00	1.013203e+00	1.010384e+00	1.006942e+00	1.003501e+00	1.000345e+00	9.975772e-01	9.953080e-01	9.936437e-01	9.926012e-01	9.920735e-01	9.918833e-01	9.918537e-01	9.918802e-01	9.920986e-01	9.927208e-01	9.936702e-01	9.946573e-01	9.954980e-01	9.961632e-01	9.966789e-01	9.970720e-01	9.973620e-01	9.975652e-01	9.976971e-01	9.977738e-01	9.978124e-01	9.978298e-01	9.978425e-01	9.978730e-01	9.979959e-01	9.984810e-01	9.999740e-01	1.003082e+00	1.007238e+00	1.010896e+00	1.013138e+00	1.014103e+00	1.014348e+00	1.014332e+00	1.014004e+00	1.012682e+00	1.010089e+00	1.006750e+00	1.003319e+00	1.000127e+00	9.972913e-01	9.949204e-01	9.931324e-01	9.919690e-01	9.913473e-01	9.910978e-01	9.910385e-01	9.910396e-01	9.911910e-01	9.917196e-01	9.926133e-01	9.935992e-01	9.944572e-01	9.951297e-01	9.956369e-01	9.960106e-01	9.962816e-01	9.964767e-01	9.966189e-01	9.967242e-01	9.968023e-01	9.968590e-01	9.968981e-01	9.969241e-01	9.969372e-01	9.969470e-01	9.995681e-01	9.995777e-01	9.995724e-01	9.995730e-01	9.995717e-01	9.995706e-01	9.995694e-01	9.995676e-01	9.995657e-01	9.995651e-01	9.995638e-01	9.995620e-01	9.995596e-01	9.995563e-01	9.995522e-01	9.995485e-01	9.995481e-01	9.995559e-01	9.995867e-01	9.997176e-01	1.000245e+00	1.001841e+00	1.004999e+00	1.008980e+00	1.012296e+00	1.014216e+00	1.014986e+00	1.015148e+00	1.015106e+00	1.014693e+00	1.013220e+00	1.010509e+00	1.007116e+00	1.003670e+00	1.000505e+00	9.977464e-01	9.954802e-01	9.937940e-01	9.927124e-01	9.921475e-01	9.919309e-01	9.918891e-01	9.919061e-01	9.920811e-01	9.926402e-01	9.935593e-01	9.945613e-01	9.954301e-01	9.961127e-01	9.966350e-01	9.970319e-01	9.973256e-01	9.975319e-01	9.976660e-01	9.977435e-01	9.977824e-01	9.978013e-01	9.978175e-01	9.978539e-01	9.979841e-01	9.984744e-01	9.999550e-01	1.003019e+00	1.007123e+00	1.010755e+00	1.012989e+00	1.013953e+00	1.014199e+00	1.014187e+00	1.013894e+00	1.012669e+00	1.010195e+00	1.006917e+00	1.003486e+00	1.000284e+00	9.974555e-01	9.950894e-01	9.932831e-01	9.920839e-01	9.914257e-01	9.911483e-01	9.910720e-01	9.910651e-01	9.911817e-01	9.916521e-01	9.925068e-01	9.934971e-01	9.943816e-01	9.950740e-01	9.955891e-01	9.959667e-01	9.962417e-01	9.964418e-01	9.965885e-01	9.966963e-01	9.967757e-01	9.968342e-01	9.968766e-01	9.969067e-01	9.969222e-01	9.969346e-01	9.995626e-01	9.995722e-01	9.995669e-01	9.995678e-01	9.995666e-01	9.995657e-01	9.995647e-01	9.995635e-01	9.995629e-01	9.995624e-01	9.995619e-01	9.995606e-01	9.995583e-01	9.995550e-01	9.995512e-01	9.995474e-01	9.995456e-01	9.995517e-01	9.995794e-01	9.997101e-01	1.000235e+00	1.001799e+00	1.004898e+00	1.008831e+00	1.012135e+00	1.014066e+00	1.014845e+00	1.015013e+00	1.014976e+00	1.014604e+00	1.013233e+00	1.010633e+00	1.007300e+00	1.003862e+00	1.000686e+00	9.979256e-01	9.956578e-01	9.939522e-01	9.928327e-01	9.922289e-01	9.919865e-01	9.919325e-01	9.919453e-01	9.920819e-01	9.925704e-01	9.934422e-01	9.944446e-01	9.953390e-01	9.960460e-01	9.965824e-01	9.969859e-01	9.972814e-01	9.974881e-01	9.976220e-01	9.977006e-01	9.977429e-01	9.977674e-01	9.977898e-01	9.978326e-01	9.979709e-01	9.984677e-01	9.999325e-01	1.002939e+00	1.006979e+00	1.010585e+00	1.012828e+00	1.013804e+00	1.014054e+00	1.014044e+00	1.013778e+00	1.012650e+00	1.010296e+00	1.007092e+00	1.003676e+00	1.000463e+00	9.976296e-01	9.952625e-01	9.934393e-01	9.922042e-01	9.915080e-01	9.912046e-01	9.911149e-01	9.911037e-01	9.911908e-01	9.915964e-01	9.923966e-01	9.933774e-01	9.942831e-01	9.950001e-01	9.955306e-01	9.959156e-01	9.961945e-01	9.963973e-01	9.965456e-01	9.966550e-01	9.967375e-01	9.968009e-01	9.968491e-01	9.968847e-01	9.969031e-01	9.969188e-01	9.995584e-01	9.995685e-01	9.995620e-01	9.995634e-01	9.995625e-01	9.995619e-01	9.995612e-01	9.995608e-01	9.995606e-01	9.995610e-01	9.995604e-01	9.995592e-01	9.995568e-01	9.995536e-01	9.995497e-01	9.995455e-01	9.995425e-01	9.995475e-01	9.995753e-01	9.997094e-01	1.000231e+00	1.001761e+00	1.004787e+00	1.008655e+00	1.011944e+00	1.013896e+00	1.014698e+00	1.014877e+00	1.014846e+00	1.014515e+00	1.013250e+00	1.010768e+00	1.007504e+00	1.004082e+00	1.000897e+00	9.981245e-01	9.958463e-01	9.941208e-01	9.929672e-01	9.923234e-01	9.920540e-01	9.919898e-01	9.920002e-01	9.921031e-01	9.925162e-01	9.933263e-01	9.943154e-01	9.952287e-01	9.959623e-01	9.965196e-01	9.969351e-01	9.972363e-01	9.974461e-01	9.975822e-01	9.976641e-01	9.977110e-01	9.977402e-01	9.977667e-01	9.978145e-01	9.979609e-01	9.984649e-01	9.999116e-01	1.002850e+00	1.006809e+00	1.010385e+00	1.012647e+00	1.013648e+00	1.013911e+00	1.013904e+00	1.013669e+00	1.012636e+00	1.010407e+00	1.007286e+00	1.003893e+00	1.000670e+00	9.978233e-01	9.954456e-01	9.936048e-01	9.923369e-01	9.916012e-01	9.912700e-01	9.911708e-01	9.911581e-01	9.912206e-01	9.915574e-01	9.922896e-01	9.932457e-01	9.941632e-01	9.949056e-01	9.954588e-01	9.958587e-01	9.961459e-01	9.963534e-01	9.965052e-01	9.966186e-01	9.967055e-01	9.967732e-01	9.968250e-01	9.968631e-01	9.968824e-01	9.969010e-01	9.995556e-01	9.995659e-01	9.995588e-01	9.995608e-01	9.995601e-01	9.995597e-01	9.995593e-01	9.995592e-01	9.995594e-01	9.995597e-01	9.995596e-01	9.995580e-01	9.995556e-01	9.995519e-01	9.995477e-01	9.995429e-01	9.995391e-01	9.995429e-01	9.995715e-01	9.997076e-01	1.000228e+00	1.001726e+00	1.004671e+00	1.008456e+00	1.011722e+00	1.013701e+00	1.014536e+00	1.014734e+00	1.014710e+00	1.014423e+00	1.013272e+00	1.010918e+00	1.007734e+00	1.004339e+00	1.001149e+00	9.983585e-01	9.960608e-01	9.943102e-01	9.931226e-01	9.924397e-01	9.921365e-01	9.920587e-01	9.920661e-01	9.921400e-01	9.924761e-01	9.932144e-01	9.941825e-01	9.951112e-01	9.958709e-01	9.964516e-01	9.968833e-01	9.971960e-01	9.974133e-01	9.975553e-01	9.976415e-01	9.976914e-01	9.977226e-01	9.977511e-01	9.978028e-01	9.979569e-01	9.984698e-01	9.999003e-01	1.002763e+00	1.006623e+00	1.010157e+00	1.012438e+00	1.013476e+00	1.013761e+00	1.013761e+00	1.013560e+00	1.012630e+00	1.010534e+00	1.007505e+00	1.004146e+00	1.000918e+00	9.980517e-01	9.956546e-01	9.937915e-01	9.924918e-01	9.917177e-01	9.913527e-01	9.912377e-01	9.912226e-01	9.912641e-01	9.915326e-01	9.921891e-01	9.931110e-01	9.940348e-01	9.948011e-01	9.953797e-01	9.957993e-01	9.961000e-01	9.963174e-01	9.964769e-01	9.965963e-01	9.966870e-01	9.967563e-01	9.968082e-01	9.968456e-01	9.968639e-01	9.968839e-01	9.995533e-01	9.995638e-01	9.995560e-01	9.995587e-01	9.995581e-01	9.995580e-01	9.995578e-01	9.995582e-01	9.995587e-01	9.995588e-01	9.995587e-01	9.995567e-01	9.995541e-01	9.995506e-01	9.995451e-01	9.995400e-01	9.995355e-01	9.995385e-01	9.995683e-01	9.997082e-01	1.000226e+00	1.001690e+00	1.004548e+00	1.008240e+00	1.011472e+00	1.013477e+00	1.014353e+00	1.014576e+00	1.014564e+00	1.014324e+00	1.013292e+00	1.011079e+00	1.007991e+00	1.004635e+00	1.001445e+00	9.986371e-01	9.963144e-01	9.945316e-01	9.933044e-01	9.925795e-01	9.922405e-01	9.921385e-01	9.921380e-01	9.921880e-01	9.924485e-01	9.931061e-01	9.940469e-01	9.949918e-01	9.957792e-01	9.963845e-01	9.968348e-01	9.971614e-01	9.973887e-01	9.975371e-01	9.976267e-01	9.976782e-01	9.977104e-01	9.977406e-01	9.977961e-01	9.979591e-01	9.984829e-01	9.998971e-01	1.002679e+00	1.006428e+00	1.009905e+00	1.012200e+00	1.013280e+00	1.013596e+00	1.013606e+00	1.013441e+00	1.012624e+00	1.010673e+00	1.007751e+00	1.004436e+00	1.001209e+00	9.983253e-01	9.959051e-01	9.940140e-01	9.926782e-01	9.918633e-01	9.914613e-01	9.913203e-01	9.912958e-01	9.913173e-01	9.915189e-01	9.920938e-01	9.929759e-01	9.939048e-01	9.946955e-01	9.953001e-01	9.957410e-01	9.960583e-01	9.962883e-01	9.964572e-01	9.965824e-01	9.966759e-01	9.967455e-01	9.967961e-01	9.968316e-01	9.968481e-01	9.968683e-01	9.995512e-01	9.995615e-01	9.995529e-01	9.995559e-01	9.995555e-01	9.995556e-01	9.995559e-01	9.995568e-01	9.995577e-01	9.995580e-01	9.995572e-01	9.995553e-01	9.995520e-01	9.995478e-01	9.995430e-01	9.995367e-01	9.995320e-01	9.995350e-01	9.995670e-01	9.997121e-01	1.000229e+00	1.001655e+00	1.004419e+00	1.008009e+00	1.011200e+00	1.013227e+00	1.014147e+00	1.014400e+00	1.014402e+00	1.014210e+00	1.013298e+00	1.011239e+00	1.008263e+00	1.004957e+00	1.001775e+00	9.989550e-01	9.966071e-01	9.947874e-01	9.935117e-01	9.927363e-01	9.923556e-01	9.922250e-01	9.922120e-01	9.922411e-01	9.924331e-01	9.930007e-01	9.939036e-01	9.948644e-01	9.956843e-01	9.963176e-01	9.967880e-01	9.971287e-01	9.973656e-01	9.975198e-01	9.976122e-01	9.976654e-01	9.976990e-01	9.977313e-01	9.977916e-01	9.979655e-01	9.985013e-01	9.998978e-01	1.002595e+00	1.006226e+00	1.009634e+00	1.011936e+00	1.013059e+00	1.013409e+00	1.013434e+00	1.013306e+00	1.012603e+00	1.010812e+00	1.008011e+00	1.004753e+00	1.001537e+00	9.986420e-01	9.962008e-01	9.942785e-01	9.928996e-01	9.920349e-01	9.915883e-01	9.914151e-01	9.913754e-01	9.913771e-01	9.915168e-01	9.920037e-01	9.928373e-01	9.937702e-01	9.945875e-01	9.952197e-01	9.956828e-01	9.960170e-01	9.962598e-01	9.964377e-01	9.965685e-01	9.966646e-01	9.967346e-01	9.967842e-01	9.968180e-01	9.968329e-01	9.968529e-01	9.995497e-01	9.995588e-01	9.995497e-01	9.995526e-01	9.995522e-01	9.995527e-01	9.995534e-01	9.995549e-01	9.995561e-01	9.995563e-01	9.995551e-01	9.995524e-01	9.995483e-01	9.995439e-01	9.995391e-01	9.995345e-01	9.995295e-01	9.995340e-01	9.995696e-01	9.997204e-01	1.000235e+00	1.001621e+00	1.004287e+00	1.007770e+00	1.010912e+00	1.012955e+00	1.013915e+00	1.014201e+00	1.014218e+00	1.014067e+00	1.013276e+00	1.011380e+00	1.008533e+00	1.005290e+00	1.002125e+00	9.992978e-01	9.969274e-01	9.950692e-01	9.937386e-01	9.929038e-01	9.924709e-01	9.923070e-01	9.922785e-01	9.922942e-01	9.924270e-01	9.928974e-01	9.937452e-01	9.947170e-01	9.955742e-01	9.962414e-01	9.967349e-01	9.970898e-01	9.973356e-01	9.974952e-01	9.975915e-01	9.976476e-01	9.976838e-01	9.977199e-01	9.977874e-01	9.979745e-01	9.985234e-01	9.999011e-01	1.002510e+00	1.006016e+00	1.009350e+00	1.011651e+00	1.012813e+00	1.013201e+00	1.013243e+00	1.013148e+00	1.012556e+00	1.010935e+00	1.008273e+00	1.005085e+00	1.001889e+00	9.989904e-01	9.965319e-01	9.945778e-01	9.931499e-01	9.922256e-01	9.917234e-01	9.915117e-01	9.914516e-01	9.914425e-01	9.915281e-01	9.919201e-01	9.926906e-01	9.936217e-01	9.944679e-01	9.951311e-01	9.956181e-01	9.959693e-01	9.962243e-01	9.964110e-01	9.965479e-01	9.966475e-01	9.967189e-01	9.967687e-01	9.968018e-01	9.968157e-01	9.968356e-01	9.995506e-01	9.995585e-01	9.995490e-01	9.995512e-01	9.995502e-01	9.995507e-01	9.995518e-01	9.995534e-01	9.995546e-01	9.995542e-01	9.995521e-01	9.995484e-01	9.995438e-01	9.995383e-01	9.995346e-01	9.995314e-01	9.995288e-01	9.995364e-01	9.995769