# vtk DataFile Version 3.0
vtk output
ASCII
DATASET STRUCTURED_GRID
DIMENSIONS 102 102 1
POINTS 10404 double
0.000000e+00	0.000000e+00	0.0	1.980198e+00	0.000000e+00	0.0	3.960396e+00	0.000000e+00	0.0	5.940594e+00	0.000000e+00	0.0	7.920792e+00	0.000000e+00	0.0	9.900990e+00	0.000000e+00	0.0	1.188119e+01	0.000000e+00	0.0	1.386139e+01	0.000000e+00	0.0	1.584158e+01	0.000000e+00	0.0	1.782178e+01	0.000000e+00	0.0	1.980198e+01	0.000000e+00	0.0	2.178218e+01	0.000000e+00	0.0	2.376238e+01	0.000000e+00	0.0	2.574257e+01	0.000000e+00	0.0	2.772277e+01	0.000000e+00	0.0	2.970297e+01	0.000000e+00	0.0	3.168317e+01	0.000000e+00	0.0	3.366337e+01	0.000000e+00	0.0	3.564356e+01	0.000000e+00	0.0	3.762376e+01	0.000000e+00	0.0	3.960396e+01	0.000000e+00	0.0	4.158416e+01	0.000000e+00	0.0	4.356436e+01	0.000000e+00	0.0	4.554455e+01	0.000000e+00	0.0	4.752475e+01	0.000000e+00	0.0	4.950495e+01	0.000000e+00	0.0	5.148515e+01	0.000000e+00	0.0	5.346535e+01	0.000000e+00	0.0	5.544554e+01	0.000000e+00	0.0	5.742574e+01	0.000000e+00	0.0	5.940594e+01	0.000000e+00	0.0	6.138614e+01	0.000000e+00	0.0	6.336634e+01	0.000000e+00	0.0	6.534653e+01	0.000000e+00	0.0	6.732673e+01	0.000000e+00	0.0	6.930693e+01	0.000000e+00	0.0	7.128713e+01	0.000000e+00	0.0	7.326733e+01	0.000000e+00	0.0	7.524752e+01	0.000000e+00	0.0	7.722772e+01	0.000000e+00	0.0	7.920792e+01	0.000000e+00	0.0	8.118812e+01	0.000000e+00	0.0	8.316832e+01	0.000000e+00	0.0	8.514851e+01	0.000000e+00	0.0	8.712871e+01	0.000000e+00	0.0	8.910891e+01	0.000000e+00	0.0	9.108911e+01	0.000000e+00	0.0	9.306931e+01	0.000000e+00	0.0	9.504950e+01	0.000000e+00	0.0	9.702970e+01	0.000000e+00	0.0	9.900990e+01	0.000000e+00	0.0	1.009901e+02	0.000000e+00	0.0	1.029703e+02	0.000000e+00	0.0	1.049505e+02	0.000000e+00	0.0	1.069307e+02	0.000000e+00	0.0	1.089109e+02	0.000000e+00	0.0	1.108911e+02	0.000000e+00	0.0	1.128713e+02	0.000000e+00	0.0	1.148515e+02	0.000000e+00	0.0	1.168317e+02	0.000000e+00	0.0	1.188119e+02	0.000000e+00	0.0	1.207921e+02	0.000000e+00	0.0	1.227723e+02	0.000000e+00	0.0	1.247525e+02	0.000000e+00	0.0	1.267327e+02	0.000000e+00	0.0	1.287129e+02	0.000000e+00	0.0	1.306931e+02	0.000000e+00	0.0	1.326733e+02	0.000000e+00	0.0	1.346535e+02	0.000000e+00	0.0	1.366337e+02	0.000000e+00	0.0	1.386139e+02	0.000000e+00	0.0	1.405941e+02	0.000000e+00	0.0	1.425743e+02	0.000000e+00	0.0	1.445545e+02	0.000000e+00	0.0	1.465347e+02	0.000000e+00	0.0	1.485149e+02	0.000000e+00	0.0	1.504950e+02	0.000000e+00	0.0	1.524752e+02	0.000000e+00	0.0	1.544554e+02	0.000000e+00	0.0	1.564356e+02	0.000000e+00	0.0	1.584158e+02	0.000000e+00	0.0	1.603960e+02	0.000000e+00	0.0	1.623762e+02	0.000000e+00	0.0	1.643564e+02	0.000000e+00	0.0	1.663366e+02	0.000000e+00	0.0	1.683168e+02	0.000000e+00	0.0	1.702970e+02	0.000000e+00	0.0	1.722772e+02	0.000000e+00	0.0	1.742574e+02	0.000000e+00	0.0	1.762376e+02	0.000000e+00	0.0	1.782178e+02	0.000000e+00	0.0	1.801980e+02	0.000000e+00	0.0	1.821782e+02	0.000000e+00	0.0	1.841584e+02	0.000000e+00	0.0	1.861386e+02	0.000000e+00	0.0	1.881188e+02	0.000000e+00	0.0	1.900990e+02	0.000000e+00	0.0	1.920792e+02	0.000000e+00	0.0	1.940594e+02	0.000000e+00	0.0	1.960396e+02	0.000000e+00	0.0	1.980198e+02	0.000000e+00	0.0	2.000000e+02	0.000000e+00	0.0	0.000000e+00	1.980198e+00	0.0	1.980198e+00	1.980198e+00	0.0	3.960396e+00	1.980198e+00	0.0	5.940594e+00	1.980198e+00	0.0	7.920792e+00	1.980198e+00	0.0	9.900990e+00	1.980198e+00	0.0	1.188119e+01	1.980198e+00	0.0	1.386139e+01	1.980198e+00	0.0	1.584158e+01	1.980198e+00	0.0	1.782178e+01	1.980198e+00	0.0	1.980198e+01	1.980198e+00	0.0	2.178218e+01	1.980198e+00	0.0	2.376238e+01	1.980198e+00	0.0	2.574257e+01	1.980198e+00	0.0	2.772277e+01	1.980198e+00	0.0	2.970297e+01	1.980198e+00	0.0	3.168317e+01	1.980198e+00	0.0	3.366337e+01	1.980198e+00	0.0	3.564356e+01	1.980198e+00	0.0	3.762376e+01	1.980198e+00	0.0	3.960396e+01	1.980198e+00	0.0	4.158416e+01	1.980198e+00	0.0	4.356436e+01	1.980198e+00	0.0	4.554455e+01	1.980198e+00	0.0	4.752475e+01	1.980198e+00	0.0	4.950495e+01	1.980198e+00	0.0	5.148515e+01	1.980198e+00	0.0	5.346535e+01	1.980198e+00	0.0	5.544554e+01	1.980198e+00	0.0	5.742574e+01	1.980198e+00	0.0	5.940594e+01	1.980198e+00	0.0	6.138614e+01	1.980198e+00	0.0	6.336634e+01	1.980198e+00	0.0	6.534653e+01	1.980198e+00	0.0	6.732673e+01	1.980198e+00	0.0	6.930693e+01	1.980198e+00	0.0	7.128713e+01	1.980198e+00	0.0	7.326733e+01	1.980198e+00	0.0	7.524752e+01	1.980198e+00	0.0	7.722772e+01	1.980198e+00	0.0	7.920792e+01	1.980198e+00	0.0	8.118812e+01	1.980198e+00	0.0	8.316832e+01	1.980198e+00	0.0	8.514851e+01	1.980198e+00	0.0	8.712871e+01	1.980198e+00	0.0	8.910891e+01	1.980198e+00	0.0	9.108911e+01	1.980198e+00	0.0	9.306931e+01	1.980198e+00	0.0	9.504950e+01	1.980198e+00	0.0	9.702970e+01	1.980198e+00	0.0	9.900990e+01	1.980198e+00	0.0	1.009901e+02	1.980198e+00	0.0	1.029703e+02	1.980198e+00	0.0	1.049505e+02	1.980198e+00	0.0	1.069307e+02	1.980198e+00	0.0	1.089109e+02	1.980198e+00	0.0	1.108911e+02	1.980198e+00	0.0	1.128713e+02	1.980198e+00	0.0	1.148515e+02	1.980198e+00	0.0	1.168317e+02	1.980198e+00	0.0	1.188119e+02	1.980198e+00	0.0	1.207921e+02	1.980198e+00	0.0	1.227723e+02	1.980198e+00	0.0	1.247525e+02	1.980198e+00	0.0	1.267327e+02	1.980198e+00	0.0	1.287129e+02	1.980198e+00	0.0	1.306931e+02	1.980198e+00	0.0	1.326733e+02	1.980198e+00	0.0	1.346535e+02	1.980198e+00	0.0	1.366337e+02	1.980198e+00	0.0	1.386139e+02	1.980198e+00	0.0	1.405941e+02	1.980198e+00	0.0	1.425743e+02	1.980198e+00	0.0	1.445545e+02	1.980198e+00	0.0	1.465347e+02	1.980198e+00	0.0	1.485149e+02	1.980198e+00	0.0	1.504950e+02	1.980198e+00	0.0	1.524752e+02	1.980198e+00	0.0	1.544554e+02	1.980198e+00	0.0	1.564356e+02	1.980198e+00	0.0	1.584158e+02	1.980198e+00	0.0	1.603960e+02	1.980198e+00	0.0	1.623762e+02	1.980198e+00	0.0	1.643564e+02	1.980198e+00	0.0	1.663366e+02	1.980198e+00	0.0	1.683168e+02	1.980198e+00	0.0	1.702970e+02	1.980198e+00	0.0	1.722772e+02	1.980198e+00	0.0	1.742574e+02	1.980198e+00	0.0	1.762376e+02	1.980198e+00	0.0	1.782178e+02	1.980198e+00	0.0	1.801980e+02	1.980198e+00	0.0	1.821782e+02	1.980198e+00	0.0	1.841584e+02	1.980198e+00	0.0	1.861386e+02	1.980198e+00	0.0	1.881188e+02	1.980198e+00	0.0	1.900990e+02	1.980198e+00	0.0	1.920792e+02	1.980198e+00	0.0	1.940594e+02	1.980198e+00	0.0	1.960396e+02	1.980198e+00	0.0	1.980198e+02	1.980198e+00	0.0	2.000000e+02	1.980198e+00	0.0	0.000000e+00	3.960396e+00	0.0	1.980198e+00	3.960396e+00	0.0	3.960396e+00	3.960396e+00	0.0	5.940594e+00	3.960396e+00	0.0	7.920792e+00	3.960396e+00	0.0	9.900990e+00	3.960396e+00	0.0	1.188119e+01	3.960396e+00	0.0	1.386139e+01	3.960396e+00	0.0	1.584158e+01	3.960396e+00	0.0	1.782178e+01	3.960396e+00	0.0	1.980198e+01	3.960396e+00	0.0	2.178218e+01	3.960396e+00	0.0	2.376238e+01	3.960396e+00	0.0	2.574257e+01	3.960396e+00	0.0	2.772277e+01	3.960396e+00	0.0	2.970297e+01	3.960396e+00	0.0	3.168317e+01	3.960396e+00	0.0	3.366337e+01	3.960396e+00	0.0	3.564356e+01	3.960396e+00	0.0	3.762376e+01	3.960396e+00	0.0	3.960396e+01	3.960396e+00	0.0	4.158416e+01	3.960396e+00	0.0	4.356436e+01	3.960396e+00	0.0	4.554455e+01	3.960396e+00	0.0	4.752475e+01	3.960396e+00	0.0	4.950495e+01	3.960396e+00	0.0	5.148515e+01	3.960396e+00	0.0	5.346535e+01	3.960396e+00	0.0	5.544554e+01	3.960396e+00	0.0	5.742574e+01	3.960396e+00	0.0	5.940594e+01	3.960396e+00	0.0	6.138614e+01	3.960396e+00	0.0	6.336634e+01	3.960396e+00	0.0	6.534653e+01	3.960396e+00	0.0	6.732673e+01	3.960396e+00	0.0	6.930693e+01	3.960396e+00	0.0	7.128713e+01	3.960396e+00	0.0	7.326733e+01	3.960396e+00	0.0	7.524752e+01	3.960396e+00	0.0	7.722772e+01	3.960396e+00	0.0	7.920792e+01	3.960396e+00	0.0	8.118812e+01	3.960396e+00	0.0	8.316832e+01	3.960396e+00	0.0	8.514851e+01	3.960396e+00	0.0	8.712871e+01	3.960396e+00	0.0	8.910891e+01	3.960396e+00	0.0	9.108911e+01	3.960396e+00	0.0	9.306931e+01	3.960396e+00	0.0	9.504950e+01	3.960396e+00	0.0	9.702970e+01	3.960396e+00	0.0	9.900990e+01	3.960396e+00	0.0	1.009901e+02	3.960396e+00	0.0	1.029703e+02	3.960396e+00	0.0	1.049505e+02	3.960396e+00	0.0	1.069307e+02	3.960396e+00	0.0	1.089109e+02	3.960396e+00	0.0	1.108911e+02	3.960396e+00	0.0	1.128713e+02	3.960396e+00	0.0	1.148515e+02	3.960396e+00	0.0	1.168317e+02	3.960396e+00	0.0	1.188119e+02	3.960396e+00	0.0	1.207921e+02	3.960396e+00	0.0	1.227723e+02	3.960396e+00	0.0	1.247525e+02	3.960396e+00	0.0	1.267327e+02	3.960396e+00	0.0	1.287129e+02	3.960396e+00	0.0	1.306931e+02	3.960396e+00	0.0	1.326733e+02	3.960396e+00	0.0	1.346535e+02	3.960396e+00	0.0	1.366337e+02	3.960396e+00	0.0	1.386139e+02	3.960396e+00	0.0	1.405941e+02	3.960396e+00	0.0	1.425743e+02	3.960396e+00	0.0	1.445545e+02	3.960396e+00	0.0	1.465347e+02	3.960396e+00	0.0	1.485149e+02	3.960396e+00	0.0	1.504950e+02	3.960396e+00	0.0	1.524752e+02	3.960396e+00	0.0	1.544554e+02	3.960396e+00	0.0	1.564356e+02	3.960396e+00	0.0	1.584158e+02	3.960396e+00	0.0	1.603960e+02	3.960396e+00	0.0	1.623762e+02	3.960396e+00	0.0	1.643564e+02	3.960396e+00	0.0	1.663366e+02	3.960396e+00	0.0	1.683168e+02	3.960396e+00	0.0	1.702970e+02	3.960396e+00	0.0	1.722772e+02	3.960396e+00	0.0	1.742574e+02	3.960396e+00	0.0	1.762376e+02	3.960396e+00	0.0	1.782178e+02	3.960396e+00	0.0	1.801980e+02	3.960396e+00	0.0	1.821782e+02	3.960396e+00	0.0	1.841584e+02	3.960396e+00	0.0	1.861386e+02	3.960396e+00	0.0	1.881188e+02	3.960396e+00	0.0	1.900990e+02	3.960396e+00	0.0	1.920792e+02	3.960396e+00	0.0	1.940594e+02	3.960396e+00	0.0	1.960396e+02	3.960396e+00	0.0	1.980198e+02	3.960396e+00	0.0	2.000000e+02	3.960396e+00	0.0	0.000000e+00	5.940594e+00	0.0	1.980198e+00	5.940594e+00	0.0	3.960396e+00	5.940594e+00	0.0	5.940594e+00	5.940594e+00	0.0	7.920792e+00	5.940594e+00	0.0	9.900990e+00	5.940594e+00	0.0	1.188119e+01	5.940594e+00	0.0	1.386139e+01	5.940594e+00	0.0	1.584158e+01	5.940594e+00	0.0	1.782178e+01	5.940594e+00	0.0	1.980198e+01	5.940594e+00	0.0	2.178218e+01	5.940594e+00	0.0	2.376238e+01	5.940594e+00	0.0	2.574257e+01	5.940594e+00	0.0	2.772277e+01	5.940594e+00	0.0	2.970297e+01	5.940594e+00	0.0	3.168317e+01	5.940594e+00	0.0	3.366337e+01	5.940594e+00	0.0	3.564356e+01	5.940594e+00	0.0	3.762376e+01	5.940594e+00	0.0	3.960396e+01	5.940594e+00	0.0	4.158416e+01	5.940594e+00	0.0	4.356436e+01	5.940594e+00	0.0	4.554455e+01	5.940594
[...]
POINT_DATA 10404

SCALARS Height double 1
LOOKUP_TABLE default
4.000000e+00	4.000000e+00	4.000000e+00	4.000000e+00	4.000000e+00	4.000000e+00	4.000000e+00	4.000000e+00	4.000000e+00	4.000000e+00	4.000000e+00	4.000000e+00	4.000000e+00	4.000000e+00	4.000000e+00	4.000000e+00	4.000000e+00	4.000000e+00	4.000000e+00	4.000000e+00	4.000000e+00	4.000000e+00	4.000000e+00	4.000000e+00	4.000000e+00	4.000000e+00	4.000000e+00	4.000000e+00	4.000000e+00	4.000000e+00	4.000000e+00	4.000000e+00	4.000000e+00	4.000000e+00	4.000000e+00	4.000000e+00	4.000000e+00	4.000000e+00	4.000000e+00	3.999999e+00	3.999997e+00	3.999970e+00	3.999867e+00	3.998900e+00	3.996853e+00	3.977267e+00	3.960679e+00	3.775068e+00	3.690932e+00	3.216026e+00	2.542395e+00	9.461099e-01	2.450122e+00	2.034159e+00	1.359259e+00	1.062899e+00	1.006908e+00	1.000606e+00	1.000052e+00	1.000004e+00	1.000000e+00	1.000000e+00	1.000000e+00	1.000000e+00	1.000000e+00	1.000000e+00	1.000000e+00	1.000000e+00	1.000000e+00	1.000000e+00	1.000000e+00	1.000000e+00	1.000000e+00	1.000000e+00	1.000000e+00	1.000000e+00	1.000000e+00	1.000000e+00	1.000000e+00	1.000000e+00	1.000000e+00	1.000000e+00	1.000000e+00	1.000000e+00	1.000000e+00	1.000000e+00	1.000000e+00	1.000000e+00	1.000000e+00	1.000000e+00	1.000000e+00	1.000000e+00	1.000000e+00	1.000000e+00	1.000000e+00	1.000000e+00	1.000000e+00	1.000000e+00	1.000000e+00	1.000000e+00	1.000000e+00	1.000000e+00	4.000000e+00	4.000000e+00	4.000000e+00	4.000000e+00	4.000000e+00	4.000000e+00	4.000000e+00	4.000000e+00	4.000000e+00	4.000000e+00	4.000000e+00	4.000000e+00	4.000000e+00	4.000000e+00	4.000000e+00	4.000000e+00	4.000000e+00	4.000000e+00	4.000000e+00	4.000000e+00	4.000000e+00	4.000000e+00	4.000000e+00	4.000000e+00	4.000000e+00	4.000000e+00	4.000000e+00	4.000000e+00	4.000000e+00	4.000000e+00	4.000000e+00	4.000000e+00	4.000000e+00	4.000000e+00	4.000000e+00	4.000000e+00	4.000000e+00	4.000000e+00	4.000000e+00	4.000000e+00	3.999998e+00	3.999973e+00	3.999920e+00	3.998943e+00	3.997990e+00	3.976872e+00	3.971557e+00	3.766816e+00	3.708111e+00	3.239551e+00	2.457449e+00	9.432491e-01	2.497349e+00	2.034872e+00	1.342449e+00	1.057181e+00	1.006119e+00	1.000520e+00	1.000044e+00	1.000003e+00	1.000000e+00	1.000000e+00	1.000000e+00	1.000000e+00	1.000000e+00	1.000000e+00	1.000000e+00	1.000000e+00	1.000000e+00	1.000000e+00	1.000000e+00	1.000000e+00	1.000000e+00	1.000000e+00	1.000000e+00	1.000000e+00	1.000000e+00	1.000000e+00	1.000000e+00	1.000000e+00	1.000000e+00	1.000000e+00	1.000000e+00	1.000000e+00	1.000000e+00	1.000000e+00	1.000000e+00	1.000000e+00	1.000000e+00	1.000000e+00	1.000000e+00	1.000000e+00	1.000000e+00	1.000000e+00	1.000000e+00	1.000000e+00	1.000000e+00	1.000000e+00	1.000000e+00	1.000000e+00	1.000000e+00	1.000000e+00	4.000000e+00	4.000000e+00	4.000000e+00	4.000000e+00	4.000000e+00	4.000000e+00	4.000000e+00	4.000000e+00	4.000000e+00	4.000000e+00	4.000000e+00	4.000000e+00	4.000000e+00	4.000000e+00	4.000000e+00	4.000000e+00	4.000000e+00	4.000000e+00	4.000000e+00	4.000000e+00	4.000000e+00	4.000000e+00	4.000000e+00	4.000000e+00	4.000000e+00	4.000000e+00	4.000000e+00	4.000000e+00	4.000000e+00	4.000000e+00	4.000000e+00	4.000000e+00	4.000000e+00	4.000000e+00	4.000000e+00	4.000000e+00	4.000000e+00	4.000000e+00	4.000000e+00	4.000000e+00	3.999998e+00	3.999973e+00	3.999919e+00	3.998941e+00	3.997939e+00	3.976885e+00	3.970432e+00	3.768071e+00	3.698553e+00	3.247412e+00	2.439383e+00	9.428594e-01	2.496228e+00	2.035273e+00	1.342783e+00	1.057248e+00	1.006126e+00	1.000520e+00	1.000044e+00	1.000003e+00	1.000000e+00	1.000000e+00	1.000000e+00	1.000000e+00	1.000000e+00	1.000000e+00	1.000000e+00	1.000000e+00	1.000000e+00	1.000000e+00	1.000000e+00	1.000000e+00	1.000000e+00	1.000000e+00	1.000000e+00	1.000000e+00	1.000000e+00	1.000000e+00	1.000000e+00	1.000000e+00	1.000000e+00	1.000000e+00	1.000000e+00	1.000000e+00	1.000000e+00	1.000000e+00	1.000000e+00	1.000000e+00	1.000000e+00	1.000000e+00	1.000000e+00	1.000000e+00	1.000000e+00	1.000000e+00	1.000000e+00	1.000000e+00	1.000000e+00	1.000000e+00	1.000000e+00	1.000000e+00	1.000000e+00	1.000000e+00	4.000000e+00	4.000000e+00	4.000000e+00	4.000000e+00	4.000000e+00	4.000000e+00	4.000000e+00	4.000000e+00	4.000000e+00	4.000000e+00	4.000000e+00	4.000000e+00	4.000000e+00	4.000000e+00	4.000000e+00	4.000000e+00	4.000000e+00	4.000000e+00	4.000000e+00	4.000000e+00	4.000000e+00	4.000000e+00	4.000000e+00	4.000000e+00	4.000000e+00	4.000000e+00	4.000000e+00	4.000000e+00	4.000000e+00	4.000000e+00	4.000000e+00	4.000000e+00	4.000000e+00	4.000000e+00	4.000000e+00	4.000000e+00	4.000000e+00	4.000000e+00	4.000000e+00	4.000000e+00	3.999998e+00	3.999973e+00	3.999922e+00	3.998944e+00	3.998021e+00	3.976865e+00	3.971662e+00	3.766998e+00	3.704864e+00	3.245297e+00	2.446224e+00	9.409630e-01	2.495088e+00	2.033866e+00	1.342149e+00	1.057127e+00	1.006113e+00	1.000519e+00	1.000044e+00	1.000003e+00	1.000000e+00	1.000000e+00	1.000000e+00	1.000000e+00	1.000000e+00	1.000000e+00	1.000000e+00	1.000000e+00	1.000000e+00	1.000000e+00	1.000000e+00	1.000000e+00	1.000000e+00	1.000000e+00	1.000000e+00	1.000000e+00	1.000000e+00	1.000000e+00	1.000000e+00	1.000000e+00	1.000000e+00	1.000000e+00	1.000000e+00	1.000000e+00	1.000000e+00	1.000000e+00	1.000000e+00	1.000000e+00	1.000000e+00	1.000000e+00	1.000000e+00	1.000000e+00	1.000000e+00	1.000000e+00	1.000000e+00	1.000000e+00	1.000000e+00	1.000000e+00	1.000000e+00	1.000000e+00	1.000000e+00	1.000000e+00	4.000000e+00	4.000000e+00	4.000000e+00	4.000000e+00	4.000000e+00	4.000000e+00	4.000000e+00	4.000000e+00	4.000000e+00	4.000000e+00	4.000000e+00	4.000000e+00	4.000000e+00	4.000000e+00	4.000000e+00	4.000000e+00	4.000000e+00	4.000000e+00	4.000000e+00	4.000000e+00	4.000000e+00	4.000000e+00	4.000000e+00	4.000000e+00	4.000000e+00	4.000000e+00	4.000000e+00	4.000000e+00	4.000000e+00	4.000000e+00	4.000000e+00	4.000000e+00	4.000000e+00	4.000000e+00	4.000000e+00	4.000000e+00	4.000000e+00	4.000000e+00	4.000000e+00	4.000000e+00	3.999998e+00	3.999973e+00	3.999917e+00	3.998938e+00	3.997842e+00	3.976832e+00	3.967734e+00	3.769074e+00	3.668261e+00	3.257719e+00	2.324606e+00	9.353640e-01	2.464980e+00	2.016944e+00	1.337862e+00	1.056551e+00	1.006073e+00	1.000517e+00	1.000044e+00	1.000003e+00	1.000000e+00	1.000000e+00	1.000000e+00	1.000000e+00	1.000000e+00	1.000000e+00	1.000000e+00	1.000000e+00	1.000000e+00	1.000000e+00	1.000000e+00	1.000000e+00	1.000000e+00	1.000000e+00	1.000000e+00	1.000000e+00	1.000000e+00	1.000000e+00	1.000000e+00	1.000000e+00	1.000000e+00	1.000000e+00	1.000000e+00	1.000000e+00	1.000000e+00	1.000000e+00	1.000000e+00	1.000000e+00	1.000000e+00	1.000000e+00	1.000000e+00	1.000000e+00	1.000000e+00	1.000000e+00	1.000000e+00	1.000000e+00	1.000000e+00	1.000000e+00	1.000000e+00	1.000000e+00	1.000000e+00	1.000000e+00	4.000000e+00	4.000000e+00	4.000000e+00	4.000000e+00	4.000000e+00	4.000000e+00	4.000000e+00	4.000000e+00	4.000000e+00	4.000000e+00	4.000000e+00	4.000000e+00	4.000000e+00	4.000000e+00	4.000000e+00	4.000000e+00	4.000000e+00	4.000000e+00	4.000000e+00	4.000000e+00	4.000000e+00	4.000000e+00	4.000000e+00	4.000000e+00	4.000000e+00	4.000000e+00	4.000000e+00	4.000000e+00	4.000000e+00	4.000000e+00	4.000000e+00	4.000000e+00	4.000000e+00	4.000000e+00	4.000000e+00	4.000000e+00	4.000000e+00	4.000000e+00	4.000000e+00	4.000000e+00	3.999998e+00	3.999973e+00	3.999913e+00	3.998938e+00	3.997705e+00	3.977017e+00	3.965281e+00	3.774984e+00	3.650388e+00	3.314368e+00	2.362384e+00	9.154815e-01	2.447102e+00	2.012508e+00	1.336769e+00	1.056386e+00	1.006060e+00	1.000516e+00	1.000044e+00	1.000003e+00	1.000000e+00	1.000000e+00	1.000000e+00	1.000000e+00	1.000000e+00	1.000000e+00	1.000000e+00	1.000000e+00	1.000000e+00	1.000000e+00	1.000000e+00	1.000000e+00	1.000000e+00	1.000000e+00	1.000000e+00	1.000000e+00	1.000000e+00	1.000000e+00	1.000000e+00	1.000000e+00	1.000000e+00	1.000000e+00	1.000000e+00	1.000000e+00	1.000000e+00	1.000000e+00	1.000000e+00	1.000000e+00	1.000000e+00	1.000000e+00	1.000000e+00	1.000000e+00	1.000000e+00	1.000000e+00	1.000000e+00	1.000000e+00	1.000000e+00	1.000000e+00	1.000000e+00	1.000000e+00	1.000000e+00	1.000000e+00	4.000000e+00	4.000000e+00	4.000000e+00	4.000000e+00	4.000000e+00	4.000000e+00	4.000000e+00	4.000000e+00	4.000000e+00	4.000000e+00	4.000000e+00	4.000000e+00	4.000000e+00	4.000000e+00	4.000000e+00	4.000000e+00	4.000000e+00	4.000000e+00	4.000000e+00	4.000000e+00	4.000000e+00	4.000000e+00	4.000000e+00	4.000000e+00	4.000000e+00	4.000000e+00	4.000000e+00	4.000000e+00	4.000000e+00	4.000000e+00	4.000000e+00	4.000000e+00	4.000000e+00	4.000000e+00	4.000000e+00	4.000000e+00	4.000000e+00	4.000000e+00	4.000000e+00	3.999999e+00	3.999996e+00	3.999968e+00	3.999819e+00	3.998824e+00	3.994925e+00	3.976028e+00	3.925126e+00	3.771803e+00	3.447804e+00	3.139625e+00	1.944296e+00	1.186224e+00	2.324640e+00	1.852768e+00	1.280756e+00	1.046794e+00	1.005242e+00	1.000459e+00	1.000040e+00	1.000003e+00	1.000000e+00	1.000000e+00	1.000000e+00	1.000000e+00	1.000000e+00	1.000000e+00	1.000000e+00	1.000000e+00	1.000000e+00	1.000000e+00	1.000000e+00	1.000000e+00	1.000000e+00	1.000000e+00	1.000000e+00	1.000000e+00	1.000000e+00	1.000000e+00	1.000000e+00	1.000000e+00	1.000000e+00	1.000000e+00	1.000000e+00	1.000000e+00	1.000000e+00	1.000000e+00	1.000000e+00	1.000000e+00	1.000000e+00	1.000000e+00	1.000000e+00	1.000000e+00	1.000000e+00	1.000000e+00	1.000000e+00	1.000000e+00	1.000000e+00	1.000000e+00	1.000000e+00	1.000000e+00	1.000000e+00	1.000000e+00	4.000000e+00	4.000000e+00	4.000000e+00	4.000000e+00	4.000000e+00	4.000000e+00	4.000000e+00	4.000000e+00	4.000000e+00	4.000000e+00	4.000000e+00	4.000000e+00	4.000000e+00	4.000000e+00	4.000000e+00	4.000000e+00	4.000000e+00	4.000000e+00	4.000000e+00	4.000000e+00	4.000000e+00	4.000000e+00	4.000000e+00	4.000000e+00	4.000000e+00	4.000000e+00	4.000000e+00	4.000000e+00	4.000000e+00	4.000000e+00	4.000000e+00	4.000000e+00	4.000000e+00	4.000000e+00	4.000000e+00	4.000000e+00	4.000000e+00	4.000000e+00	4.000000e+00	3.999999e+00	3.999995e+00	3.999968e+00	3.999783e+00	3.998862e+00	3.993967e+00	3.978626e+00	3.909478e+00	3.832779e+00	3.312780e+00	3.636585e+00	1.755817e+00	3.558540e-01	2.082293e+00	1.837893e+00	1.272193e+00	1.045194e+00	1.005074e+00	1.000446e+00	1.000039e+00	1.000003e+00	1.000000e+00	1.000000e+00	1.000000e+00	1.000000e+00	1.000000e+00	1.000000e+00	1.000000e+00	1.000000e+00	1.000000e+00	1.000000e+00	1.000000e+00	1.000000e+00	1.000000e+00	1.000000e+00	1.000000e+00	1.000000e+00	1.000000e+00	1.000000e+00	1.000000e+00	1.000000e+00	1.000000e+00	1.000000e+00	1.000000e+00	1.000000e+00	1.000000e+00	1.000000e+00	1.000000e+00	1.000000e+00	1.000000e+00	1.000000e+00	1.000000e+00	1.000000e+00	1.000000e+00	1.000000e+00	1.000000e+00	1.000000e+00	1.000000e+00	1.000000e+00	1.000000e+00	1.000000e+00	1.000000e+00	1.000000e+00	4.000000e+00	4.000000e+00	4.000000e+00	4.000000e+00	4.000000e+00	4.000000e+00	4.000000e+00	4.000000e+00	4.000000e+00	4.000000e+00	4.000000e+00	4.000000e+00	4.000000e+00	4.000000e+00	4.000000e+00	4.000000e+00	4.000000e+00	4.000000e+00	4.000000e+00	4.000000e+00	4.000000e+00	4.000000e+00	4.000000e+00	4.000000e+00	4.000000e+00	4.000000e+00	4.000000e+00	4.000000e+00	4.000000e+00	4.000000e+00	4.000000e+00	4.000000e+00	4.000000e+00	4.000000e+00	4.000000e+00	4.000000e+00	4.000000e+00	4.000000e+00	4.000000e+00	3.999998e+00	3.999976e+00	3.999927e+00	3.999051e+00	3.998134e+00	3.979559e+00	3.972676e+00	3.797039e+00	3.725742e+00	3.285010e+00	2.641727e+00	1.671020e+00	2.196968e+00	1.941825e+00	1.358870e+00	1.066296e+00	1.007466e+00	1.000677e+00	1.000057e+00	1.000004e+00	1.000000e+00	1.000000e+00	1.000000e+00	1.000000e+00	1.000000e+00	1.000000e+00	1.000000e+00	1.000000e+00	1.000000e+00	1.000000e+00	1.000000e+00	1.000000e+00	1.000000e+00	1.000000e+00	1.000000e+00	1.000000e+00	1.000000e+00	1.000000e+00	1.000000e+00	1.000000e+00	1.000000e+00	1.000000e+00	1.000000e+00	1.000000e+00	1.000000e+00	1.000000e+00	1.000000e+00	1.000000e+00	1.000000e+00	1.000000e+00	1.000000e+00	1.000000e+00	1.000000e+00	1.000000e+00	1.000000e+00	1.000000e+00	1.000000e+00	1.000000e+00	1.000000e+00	1.000000e+00	1.000000e+00	1.000000e+00	1.000000e+00	4.000000e+00	4.000000e+00	4.000000e+00	4.000000e+00	4.000000e+00	4.000000e+00	4.000000e+00	4.000000e+00	4.000000e+00	4.000000e+00	4.000000e+00	4.000000e+00	4.000000e+00	4.000000e+00	4.000000e+00	4.000000e+00	4.000000e+00	4.000000e+00	4.000000e+00	4.000000e+00	4.000000e+00	4.000000e+00	4.000000e+00	4.000000e+00	4.000000e+00	4.000000e+00	4.000000e+00	4.000000e+00	4.000000e+00	4.000000e+00	4.000000e+00	4.000000e+00	4.000000e+00	4.000000e+00	4.000000e+00	4.000000e+00	4.000000e+00	4.000000e+00	4.000000e+00	3.999998e+00	3.999975e+00	3.999920e+00	3.999025e+00	3.997818e+00	3.979462e+00	3.964258e+00	3.812755e+00	3.606446e+00	3.541153e+00	1.871933e+00	1.829247e+00	3.035407e+00	2.353249e+00	1.490692e+00	1.087986e+00	1.009225e+00	1.000771e+00	1.000061e+00	1.000004e+00	1.000000e+00	1.000000e+00	1.000000e+00	1.000000e+00	1.000000e+00	1.000000e+00	1.000000e+00	1.000000e+00	1.000000e+00	1.000000e+00	1.000000e+00	1.000000e+00	1.000000e+00	1.000000e+00	1.000000e+00	1.000000e+00	1.000000e+00	1.000000e+00	1.000000e+00	1.000000e+00	1.000000e+00	1.000000e+00	1.000000e+00	1.000000e+00	1.000000e+00	1.000000e+00	1.000000e+00	1.000000e+00	1.000000e+00	1.000000e+00	1.000000e+00	1.000000e+00	1.000000e+00	1.000000e+00	1.000000e+00	1.000000e+00	1.000000e+00	1.000000e+00	1.000000e+00	1.000000e+00	1.000000e+00	1.000000e+00	1.000000e+00	4.000000e+00	4.000000e+00	4.000000e+00	4.000000e+00	4.000000e+00	4.000000e+00	4.000000e+00	4.000000e+00	4.000000e+00	4.000000e+00	4.000000e+00	4.000000e+00	4.000000e+00	4.000000e+00	4.000000e+00	4.000000e+00	4.000000e+00	4.000000e+00	4.000000e+00	4.000000e+00	4.000000e+00	4.000000e+00	4.000000e+00	4.000000e+00	4.000000e+00	4.000000e+00	4.000000e+00	4.000000e+00	4.000000e+00	4.000000e+00	4.000000e+00	4.000000e+00	4.000000e+00	4.000000e+00	4.000000e+00	4.000000e+00	4.000000e+00	4.000000e+00	4.000000e+00	3.999998e+00	3.999973e+00	3.999913e+00	3.998939e+00	3.997694e+00	3.977104e+00	3.964642e+00	3.778906e+00	3.632540e+00	3.379632e+00	2.079852e+00	1.337324e+00	2.798324e+00	2.147015e+00	1.379028e+00	1.062908e+00	1.006552e+00	1.000545e+00	1.000046e+00	1.000003e+00	1.000000e+00	1.000000e+00	1.000000e+00	1.000000e+00	1.000000e+00	1.000000e+00	1.000000e+00	1.000000e+00	1.000000e+00	1.000000e+00	1.000000e+00	1.000000e+00	1.000000e+00	1.000000e+00	1.000000e+00	1.000000e+00	1.000000e+00	1.000000e+00	1.000000e+00	1.000000e+00	1.000000e+00	1.000000e+00	1.000000e+00	1.000000e+00	1.000000e+00	1.000000e+00	1.000000e+00	1.000000e+00	1.000000e+00	1.000000e+00	1.000000e+00	1.000000e+00	1.000000e+00	1.000000e+00	1.000000e+00	1.000000e+00	1.000000e+00	1.000000e+00	1.000000e+00	1.000000e+00	1.000000e+00	1.000000e+00	1.000000e+00	4.000000e+00	4.000000e+00	4.000000e+00	4.000000e+00	4.000000e+00	4.000000e+00	4.000000e+00	4.000000e+00	4.000000e+00	4.000000e+00	4.000000e+00	4.000000e+00	4.000000e+00	4.000000e+00	4.000000e+00	4.000000e+00	4.000000e+00	4.000000e+00	4.000000e+00	4.000000e+00	4.000000e+00	4.000000e+00	4.000000e+00	4.000000e+00	4.000000e+00	4.000000e+00	4.000000e+00	4.000000e+00	4.000000e+00	4.000000e+00	4.000000e+00	4.000000e+00	4.000000e+00	4.000000e+00	4.000000e+00	4.000000e+00	4.000000e+00	4.000000e+00	3.999999e+00	3.999996e+00	3.999968e+00	3.999818e+00	3.998813e+00	3.994919e+00	3.975812e+00	3.925052e+00	3.771429e+00	3.441700e+00	3.168685e+00	1.796917e+00	1.311462e+00	2.487565e+00	1.913437e+00	1.294977e+00	1.048556e+00	1.005362e+00	1.000466e+00	1.000041e+00	1.000003e+00	1.000000e+00	1.000000e+00	1.000000e+00	1.000000e+00	1.000000e+00	1.000000e+00	1.000000e+00	1.000000e+00	1.000000e+00	1.000000e+00	1.000000e+00	1.000000e+00	1.000000e+00	1.000000e+00	1.000000e+00	1.000000e+00	1.000000e+00	1.000000e+00	1.000000e+00	1.000000e+00	1.000000e+00	1.000000e+00	1.000000e+00	1.000000e+00	1.000000e+00	1.000000e+00	1.000000e+00	1.000000e+00	1.000000e+00	1.000000e+00	1.000000e+00	1.000000e+00	1.000000e+00	1.000000e+00	1.000000e+00	1.000000e+00	1.000000e+00	1.000000e+00	1.000000e+00	1.000000e+00	1.000000e+00	1.000000e+00	1.000000e+00	4.000000e+00	4.000000e+00	4.000000e+00	4.000000e+00	4.000000e+00	4.000000e+00	4.000000e+00	4.000000e+00	4.000000e+00	4.000000e+00	4.000000e+00	4.000000e+00	4.000000e+00	4.000000e+00	4.000000e+00	4.000000e+00	4.000000e+00	4.000000e+00	4.000000e+00	4.000000e+00	4.000000e+00	4.000000e+00	4.000000e+00	4.000000e+00	4.000000e+00	4.000000e+00	4.000000e+00	4.000000e+00	4.000000e+00	4.000000e+00	4.000000e+00	4.000000e+00	4.000000e+00	4.000000e+00	4.000000e+00	4.000000e+00	4.000000e+00	4.000000e+00	3.999999e+00	3.999995e+00	3.999963e+00	3.999777e+00	3.998672e+00	3.993932e+00	3.974484e+00	3.911758e+00	3.793161e+00	3.332472e+00	3.540212e+00	1.710261e+00	3.388567e-01	2.104344e+00	1.846890e+00	1.273830e+00	1.045360e+00	1.005083e+00	1.000447e+00	1.000039e+00	1.000003e+00	1.000000e+00	1.000000e+00	1.000000e+00	1.000000e+00	1.000000e+00	1.000000e+00	1.000000e+00	1.000000e+00	1.000000e+00	1.000000e+00	1.000000e+00	1.000000e+00	1.000000e+00	1.000000e+00	1.000000e+00	1.000000e+00	1.000000e+00	1.000000e+00	1.000000e+00	1.000000e+00	1.000000e+00	1.000000e+00	1.000000e+00	1.000000e+00	1.000000e+00	1.000000e+00	1.000000e+00	1.000000e+00	1.000000e+00	1.000000e+00	1.000000e+00	1.000000e+00	1.000000e+00	1.000000e+00	1.000000e+00	1.000000e+00	1.000000e+00	1.000000e+00	1.000000e+00	1.000000e+00	1.000000e+00	1.000000e+00	1.000000e+00	4.000000e+00	4.000000e+00	4.000000e+00	4.000000e+00	4.000000e+00	4.000000e+00	4.000000e+00	4.000000e+00	4.000000e+00	4.000000e+00	4.000000e+00	4.000000e+00	4.000000e+00	4.000000e+00	4.000000e+00	4.000000e+00	4.000000e+00	4.000000e+00	4.000000e+00	4.000000e+00	4.000000e+00	4.000000e+00	4.000000e+00	4.000000e+00	4.000000e+00	4.000000e+00	4.000000e+00	4.000000e+00	4.000000e+00	4.000000e+00	4.000000e+00	4.000000e+00	4.000000e+00	4.000000e+00	4.000000e+00	4.000000e+00	4.000000e+00	4.000000e+00	3.999998e+00	3.999975e+00	3.999918e+00	3.999039e+00	3.997807e+00	3.979534e+00	3.966268e+00	3.802478e+00	3.672119e+00	3.339505e+00	2.556900e+00	1.612173e+00	2.166193e+00	1.936914e+00	1.358356e+00	1.066246e+00	1.007460e+00	1.000676e+00	1.000056e+00	1.000004e+00	1.000000e+00	1.000000e+00	1.000000e+00	1.000000e+00	1.000000e+00	1.000000e+00	1.000000e+00	1.000000e+00	1.000000e+00	1.000000e+00	1.000000e+00	1.000000e+00	1.000000e+00	1.000000e+00	1.000000e+00	1.000000e+00	1.000000e+00	1.000000e+00	1.000000e+00	1.000000e+00	1.000000e+00	1.000000e+00	1.000000e+00	1.000000e+00	1.000000e+00	1.000000e+00	1.000000e+00	1.000000e+00	1.000000e+00	1.000000e+00	1.000000e+00	1.000000e+00	1.000000e+00	1.000000e+00	1.000000e+00	1.000000e+00	1.000000e+00	1.000000e+00	1.000000e+00	1.000000e+00	1.000000e+00	1.000000e+00	1.000000e+00	1.000000e+00	4.000000e+00	4.000000e+00	4.000000e+00	4.000000e+00	4.000000e+00	4.000000e+00	4.000000e+00	4.000000e+00	4.000000e+00	4.000000e+00	4.000000e+00	4.000000e+00	4.000000e+00	4.000000e+00	4.000000e+00	4.000000e+00	4.000000e+00	4.000000e+00	4.000000e+00	4.000000e+00	4.000000e+00	4.000000e+00	4.000000e+00	4.000000e+00	4.000000e+00	4.000000e+00	4.000000e+00	4.000000e+00	4.000000e+00	4.000000e+00	4.000000e+00	4.000000e+00	4.000000e+00	4.000000e+00	4.000000e+00	4.000000e+00	4.000000e+00	3.999999e+00	3.999996e+00	3.999970e+00	3.999820e+00	3.998898e+00	3.994897e+00	3.978375e+00	3.922068e+00	3.813005e+00	3.392162e+00	3.418563e+00	1.489201e+00	2.014328e+00	2.883727e+00	2.217820e+00	1.436548e+00	1.077315e+00	1.008260e+00	1.000706e+00	1.000058e+00	1.000004e+00	1.000000e+00	1.000000e+00	1.000000e+00	1.000000e+00	1.000000e+00	1.000000e+00	1.000000e+00	1.000000e+00	1.000000e+00	1.000000e+00	1.000000e+00	1.000000e+00	1.000000e+00	1.000000e+00	1.000000e+00	1.000000e+00	1.000000e+00	1.000000e+00	1.000000e+00	1.000000e+00	1.000000e+00	1.000000e+00	1.000000e+00	1.000000e+00	1.000000e+00	1.000000e+00	1.000000e+00	1.000000e+00	1.000000e+00	1.000000e+00	1.000000e+00	1.000000e+00	1.000000e+00	1.000000e+00	1.000000e+00	1.000000e+00	1.000000e+00	1.000000e+00	1.000000e+00	1.000000e+00	1.000000e+00	1.000000e+00	1.000000e+00	1.000000e+00	4.000000e+00	4.000000e+00	4.000000e+00	4.000000