# vtk DataFile Version 3.0
vtk output
ASCII
DATASET STRUCTURED_GRID
DIMENSIONS 101 101 1
POINTS 10201 double
0.000000e+00	0.000000e+00	0.0	1.000000e-02	0.000000e+00	0.0	2.000000e-02	0.000000e+00	0.0	3.000000e-02	0.000000e+00	0.0	4.000000e-02	0.000000e+00	0.0	5.000000e-02	0.000000e+00	0.0	6.000000e-02	0.000000e+00	0.0	7.000000e-02	0.000000e+00	0.0	8.000000e-02	0.000000e+00	0.0	9.000000e-02	0.000000e+00	0.0	1.000000e-01	0.000000e+00	0.0	1.100000e-01	0.000000e+00	0.0	1.200000e-01	0.000000e+00	0.0	1.300000e-01	0.000000e+00	0.0	1.400000e-01	0.000000e+00	0.0	1.500000e-01	0.000000e+00	0.0	1.600000e-01	0.000000e+00	0.0	1.700000e-01	0.000000e+00	0.0	1.800000e-01	0.000000e+00	0.0	1.900000e-01	0.000000e+00	0.0	2.000000e-01	0.000000e+00	0.0	2.100000e-01	0.000000e+00	0.0	2.200000e-01	0.000000e+00	0.0	2.300000e-01	0.000000e+00	0.0	2.400000e-01	0.000000e+00	0.0	2.500000e-01	0.000000e+00	0.0	2.600000e-01	0.000000e+00	0.0	2.700000e-01	0.000000e+00	0.0	2.800000e-01	0.000000e+00	0.0	2.900000e-01	0.000000e+00	0.0	3.000000e-01	0.000000e+00	0.0	3.100000e-01	0.000000e+00	0.0	3.200000e-01	0.000000e+00	0.0	3.300000e-01	0.000000e+00	0.0	3.400000e-01	0.000000e+00	0.0	3.500000e-01	0.000000e+00	0.0	3.600000e-01	0.000000e+00	0.0	3.700000e-01	0.000000e+00	0.0	3.800000e-01	0.000000e+00	0.0	3.900000e-01	0.000000e+00	0.0	4.000000e-01	0.000000e+00	0.0	4.100000e-01	0.000000e+00	0.0	4.200000e-01	0.000000e+00	0.0	4.300000e-01	0.000000e+00	0.0	4.400000e-01	0.000000e+00	0.0	4.500000e-01	0.000000e+00	0.0	4.600000e-01	0.000000e+00	0.0	4.700000e-01	0.000000e+00	0.0	4.800000e-01	0.000000e+00	0.0	4.900000e-01	0.000000e+00	0.0	5.000000e-01	0.000000e+00	0.0	5.100000e-01	0.000000e+00	0.0	5.200000e-01	0.000000e+00	0.0	5.300000e-01	0.000000e+00	0.0	5.400000e-01	0.000000e+00	0.0	5.500000e-01	0.000000e+00	0.0	5.600000e-01	0.000000e+00	0.0	5.700000e-01	0.000000e+00	0.0	5.800000e-01	0.000000e+00	0.0	5.900000e-01	0.000000e+00	0.0	6.000000e-01	0.000000e+00	0.0	6.100000e-01	0.000000e+00	0.0	6.200000e-01	0.000000e+00	0.0	6.300000e-01	0.000000e+00	0.0	6.400000e-01	0.000000e+00	0.0	6.500000e-01	0.000000e+00	0.0	6.600000e-01	0.000000e+00	0.0	6.700000e-01	0.000000e+00	0.0	6.800000e-01	0.000000e+00	0.0	6.900000e-01	0.000000e+00	0.0	7.000000e-01	0.000000e+00	0.0	7.100000e-01	0.000000e+00	0.0	7.200000e-01	0.000000e+00	0.0	7.300000e-01	0.000000e+00	0.0	7.400000e-01	0.000000e+00	0.0	7.500000e-01	0.000000e+00	0.0	7.600000e-01	0.000000e+00	0.0	7.700000e-01	0.000000e+00	0.0	7.800000e-01	0.000000e+00	0.0	7.900000e-01	0.000000e+00	0.0	8.000000e-01	0.000000e+00	0.0	8.100000e-01	0.000000e+00	0.0	8.200000e-01	0.000000e+00	0.0	8.300000e-01	0.000000e+00	0.0	8.400000e-01	0.000000e+00	0.0	8.500000e-01	0.000000e+00	0.0	8.600000e-01	0.000000e+00	0.0	8.700000e-01	0.000000e+00	0.0	8.800000e-01	0.000000e+00	0.0	8.900000e-01	0.000000e+00	0.0	9.000000e-01	0.000000e+00	0.0	9.100000e-01	0.000000e+00	0.0	9.200000e-01	0.000000e+00	0.0	9.300000e-01	0.000000e+00	0.0	9.400000e-01	0.000000e+00	0.0	9.500000e-01	0.000000e+00	0.0	9.600000e-01	0.000000e+00	0.0	9.700000e-01	0.000000e+00	0.0	9.800000e-01	0.000000e+00	0.0	9.900000e-01	0.000000e+00	0.0	1.000000e+00	0.000000e+00	0.0	0.000000e+00	1.000000e-02	0.0	1.000000e-02	1.000000e-02	0.0	2.000000e-02	1.000000e-02	0.0	3.000000e-02	1.000000e-02	0.0	4.000000e-02	1.000000e-02	0.0	5.000000e-02	1.000000e-02	0.0	6.000000e-02	1.000000e-02	0.0	7.000000e-02	1.000000e-02	0.0	8.000000e-02	1.000000e-02	0.0	9.000000e-02	1.000000e-02	0.0	1.000000e-01	1.000000e-02	0.0	1.100000e-01	1.000000e-02	0.0	1.200000e-01	1.000000e-02	0.0	1.300000e-01	1.000000e-02	0.0	1.400000e-01	1.000000e-02	0.0	1.500000e-01	1.000000e-02	0.0	1.600000e-01	1.000000e-02	0.0	1.700000e-01	1.000000e-02	0.0	1.800000e-01	1.000000e-02	0.0	1.900000e-01	1.000000e-02	0.0	2.000000e-01	1.000000e-02	0.0	2.100000e-01	1.000000e-02	0.0	2.200000e-01	1.000000e-02	0.0	2.300000e-01	1.000000e-02	0.0	2.400000e-01	1.000000e-02	0.0	2.500000e-01	1.000000e-02	0.0	2.600000e-01	1.000000e-02	0.0	2.700000e-01	1.000000e-02	0.0	2.800000e-01	1.000000e-02	0.0	2.900000e-01	1.000000e-02	0.0	3.000000e-01	1.000000e-02	0.0	3.100000e-01	1.000000e-02	0.0	3.200000e-01	1.000000e-02	0.0	3.300000e-01	1.000000e-02	0.0	3.400000e-01	1.000000e-02	0.0	3.500000e-01	1.000000e-02	0.0	3.600000e-01	1.000000e-02	0.0	3.700000e-01	1.000000e-02	0.0	3.800000e-01	1.000000e-02	0.0	3.900000e-01	1.000000e-02	0.0	4.000000e-01	1.000000e-02	0.0	4.100000e-01	1.000000e-02	0.0	4.200000e-01	1.000000e-02	0.0	4.300000e-01	1.000000e-02	0.0	4.400000e-01	1.000000e-02	0.0	4.500000e-01	1.000000e-02	0.0	4.600000e-01	1.000000e-02	0.0	4.700000e-01	1.000000e-02	0.0	4.800000e-01	1.000000e-02	0.0	4.900000e-01	1.000000e-02	0.0	5.000000e-01	1.000000e-02	0.0	5.100000e-01	1.000000e-02	0.0	5.200000e-01	1.000000e-02	0.0	5.300000e-01	1.000000e-02	0.0	5.400000e-01	1.000000e-02	0.0	5.500000e-01	1.000000e-02	0.0	5.600000e-01	1.000000e-02	0.0	5.700000e-01	1.000000e-02	0.0	5.800000e-01	1.000000e-02	0.0	5.900000e-01	1.000000e-02	0.0	6.000000e-01	1.000000e-02	0.0	6.100000e-01	1.000000e-02	0.0	6.200000e-01	1.000000e-02	0.0	6.300000e-01	1.000000e-02	0.0	6.400000e-01	1.000000e-02	0.0	6.500000e-01	1.000000e-02	0.0	6.600000e-01	1.000000e-02	0.0	6.700000e-01	1.000000e-02	0.0	6.800000e-01	1.000000e-02	0.0	6.900000e-01	1.000000e-02	0.0	7.000000e-01	1.000000e-02	0.0	7.100000e-01	1.000000e-02	0.0	7.200000e-01	1.000000e-02	0.0	7.300000e-01	1.000000e-02	0.0	7.400000e-01	1.000000e-02	0.0	7.500000e-01	1.000000e-02	0.0	7.600000e-01	1.000000e-02	0.0	7.700000e-01	1.000000e-02	0.0	7.800000e-01	1.000000e-02	0.0	7.900000e-01	1.000000e-02	0.0	8.000000e-01	1.000000e-02	0.0	8.100000e-01	1.000000e-02	0.0	8.200000e-01	1.000000e-02	0.0	8.300000e-01	1.000000e-02	0.0	8.400000e-01	1.000000e-02	0.0	8.500000e-01	1.000000e-02	0.0	8.600000e-01	1.000000e-02	0.0	8.700000e-01	1.000000e-02	0.0	8.800000e-01	1.000000e-02	0.0	8.900000e-01	1.000000e-02	0.0	9.000000e-01	1.000000e-02	0.0	9.100000e-01	1.000000e-02	0.0	9.200000e-01	1.000000e-02	0.0	9.300000e-01	1.000000e-02	0.0	9.400000e-01	1.000000e-02	0.0	9.500000e-01	1.000000e-02	0.0	9.600000e-01	1.000000e-02	0.0	9.700000e-01	1.000000e-02	0.0	9.800000e-01	1.000000e-02	0.0	9.900000e-01	1.000000e-02	0.0	1.000000e+00	1.000000e-02	0.0	0.000000e+00	2.000000e-02	0.0	1.000000e-02	2.000000e-02	0.0	2.000000e-02	2.000000e-02	0.0	3.000000e-02	2.000000e-02	0.0	4.000000e-02	2.000000e-02	0.0	5.000000e-02	2.000000e-02	0.0	6.000000e-02	2.000000e-02	0.0	7.000000e-02	2.000000e-02	0.0	8.000000e-02	2.000000e-02	0.0	9.000000e-02	2.000000e-02	0.0	1.000000e-01	2.000000e-02	0.0	1.100000e-01	2.000000e-02	0.0	1.200000e-01	2.000000e-02	0.0	1.300000e-01	2.000000e-02	0.0	1.400000e-01	2.000000e-02	0.0	1.500000e-01	2.000000e-02	0.0	1.600000e-01	2.000000e-02	0.0	1.700000e-01	2.000000e-02	0.0	1.800000e-01	2.000000e-02	0.0	1.900000e-01	2.000000e-02	0.0	2.000000e-01	2.000000e-02	0.0	2.100000e-01	2.000000e-02	0.0	2.200000e-01	2.000000e-02	0.0	2.300000e-01	2.000000e-02	0.0	2.400000e-01	2.000000e-02	0.0	2.500000e-01	2.000000e-02	0.0	2.600000e-01	2.000000e-02	0.0	2.700000e-01	2.000000e-02	0.0	2.800000e-01	2.000000e-02	0.0	2.900000e-01	2.000000e-02	0.0	3.000000e-01	2.000000e-02	0.0	3.100000e-01	2.000000e-02	0.0	3.200000e-01	2.000000e-02	0.0	3.300000e-01	2.000000e-02	0.0	3.400000e-01	2.000000e-02	0.0	3.500000e-01	2.000000e-02	0.0	3.600000e-01	2.000000e-02	0.0	3.700000e-01	2.000000e-02	0.0	3.800000e-01	2.000000e-02	0.0	3.900000e-01	2.000000e-02	0.0	4.000000e-01	2.000000e-02	0.0	4.100000e-01	2.000000e-02	0.0	4.200000e-01	2.000000e-02	0.0	4.300000e-01	2.000000e-02	0.0	4.400000e-01	2.000000e-02	0.0	4.500000e-01	2.000000e-02	0.0	4.600000e-01	2.000000e-02	0.0	4.700000e-01	2.000000e-02	0.0	4.800000e-01	2.000000e-02	0.0	4.900000e-01	2.000000e-02	0.0	5.000000e-01	2.000000e-02	0.0	5.100000e-01	2.000000e-02	0.0	5.200000e-01	2.000000e-02	0.0	5.300000e-01	2.000000e-02	0.0	5.400000e-01	2.000000e-02	0.0	5.500000e-01	2.000000e-02	0.0	5.600000e-01	2.000000e-02	0.0	5.700000e-01	2.000000e-02	0.0	5.800000e-01	2.000000e-02	0.0	5.900000e-01	2.000000e-02	0.0	6.000000e-01	2.000000e-02	0.0	6.100000e-01	2.000000e-02	0.0	6.200000e-01	2.000000e-02	0.0	6.300000e-01	2.000000e-02	0.0	6.400000e-01	2.000000e-02	0.0	6.500000e-01	2.000000e-02	0.0	6.600000e-01	2.000000e-02	0.0	6.700000e-01	2.000000e-02	0.0	6.800000e-01	2.000000e-02	0.0	6.900000e-01	2.000000e-02	0.0	7.000000e-01	2.000000e-02	0.0	7.100000e-01	2.000000e-02	0.0	7.200000e-01	2.000000e-02	0.0	7.300000e-01	2.000000e-02	0.0	7.400000e-01	2.000000e-02	0.0	7.500000e-01	2.000000e-02	0.0	7.600000e-01	2.000000e-02	0.0	7.700000e-01	2.000000e-02	0.0	7.800000e-01	2.000000e-02	0.0	7.900000e-01	2.000000e-02	0.0	8.000000e-01	2.000000e-02	0.0	8.100000e-01	2.000000e-02	0.0	8.200000e-01	2.000000e-02	0.0	8.300000e-01	2.000000e-02	0.0	8.400000e-01	2.000000e-02	0.0	8.500000e-01	2.000000e-02	0.0	8.600000e-01	2.000000e-02	0.0	8.700000e-01	2.000000e-02	0.0	8.800000e-01	2.000000e-02	0.0	8.900000e-01	2.000000e-02	0.0	9.000000e-01	2.000000e-02	0.0	9.100000e-01	2.000000e-02	0.0	9.200000e-01	2.000000e-02	0.0	9.300000e-01	2.000000e-02	0.0	9.400000e-01	2.000000e-02	0.0	9.500000e-01	2.000000e-02	0.0	9.600000e-01	2.000000e-02	0.0	9.700000e-01	2.000000e-02	0.0	9.800000e-01	2.000000e-02	0.0	9.900000e-01	2.000000e-02	0.0	1.000000e+00	2.000000e-02	0.0	0.000000e+00	3.000000e-02	0.0	1.000000e-02	3.000000e-02	0.0	2.000000e-02	3.000000e-02	0.0	3.000000e-02	3.000000e-02	0.0	4.000000e-02	3.000000e-02	0.0	5.000000e-02	3.000000e-02	0.0	6.000000e-02	3.000000e-02	0.0	7.000000e-02	3.000000e-02	0.0	8.000000e-02	3.000000e-02	0.0	9.000000e-02	3.000000e-02	0.0	1.000000e-01	3.000000e-02	0.0	1.100000e-01	3.000000e-02	0.0	1.200000e-01	3.000000e-02	0.0	1.300000e-01	3.000000e-02	0.0	1.400000e-01	3.000000e-02	0.0	1.500000e-01	3.000000e-02	0.0	1.600000e-01	3.000000e-02	0.0	1.700000e-01	3.000000e-02	0.0	1.800000e-01	3.000000e-02	0.0	1.900000e-01	3.000000e-02	0.0	2.000000e-01	3.000000e-02	0.0	2.100000e-01	3.000000e-02	0.0	2.200000e-01	3.000000e-02	0.0	2.300000e-01	3.000000e-02	0.0	2.400000e-01	3.000000e-02	0.0	2.500000e-01	3.000000e-02	0.0	2.600000e-01	3.000000
[...]
POINT_DATA 10201

SCALARS Height double 1
LOOKUP_TABLE default
9.941119e-01	9.940813e-01	9.940919e-01	9.940318e-01	9.939609e-01	9.938604e-01	9.937261e-01	9.935596e-01	9.933599e-01	9.931171e-01	9.928304e-01	9.924911e-01	9.920696e-01	9.915038e-01	9.906447e-01	9.892962e-01	9.873225e-01	9.848049e-01	9.821368e-01	9.798644e-01	9.783286e-01	9.776143e-01	9.776560e-01	9.790324e-01	9.824409e-01	9.878061e-01	9.949598e-01	1.003553e+00	1.012893e+00	1.021893e+00	1.029375e+00	1.034530e+00	1.037091e+00	1.037329e+00	1.033864e+00	1.024115e+00	1.011671e+00	1.002798e+00	9.987416e-01	9.973462e-01	9.969344e-01	9.968133e-01	9.967598e-01	9.967036e-01	9.966138e-01	9.964766e-01	9.962945e-01	9.960764e-01	9.958270e-01	9.955442e-01	9.952208e-01	9.948479e-01	9.944075e-01	9.938501e-01	9.930547e-01	9.918197e-01	9.899480e-01	9.874466e-01	9.846654e-01	9.821783e-01	9.804189e-01	9.795411e-01	9.794485e-01	9.805275e-01	9.836083e-01	9.887509e-01	9.958293e-01	1.004520e+00	1.014114e+00	1.023459e+00	1.031317e+00	1.036814e+00	1.039699e+00	1.040152e+00	1.037178e+00	1.027780e+00	1.015074e+00	1.005850e+00	1.001759e+00	1.000451e+00	1.000106e+00	1.000024e+00	1.000006e+00	1.000001e+00	1.000000e+00	1.000000e+00	1.000000e+00	1.000000e+00	1.000000e+00	1.000000e+00	1.000000e+00	1.000000e+00	1.000000e+00	1.000000e+00	1.000000e+00	1.000000e+00	1.000000e+00	1.000000e+00	1.000000e+00	1.000000e+00	1.000000e+00	9.940813e-01	9.940406e-01	9.940559e-01	9.939949e-01	9.939214e-01	9.938175e-01	9.936808e-01	9.935108e-01	9.933053e-01	9.930556e-01	9.927616e-01	9.924130e-01	9.919753e-01	9.913794e-01	9.904774e-01	9.890891e-01	9.870863e-01	9.845589e-01	9.818685e-01	9.795196e-01	9.780458e-01	9.776145e-01	9.777461e-01	9.791207e-01	9.825825e-01	9.880446e-01	9.952467e-01	1.003846e+00	1.013175e+00	1.022219e+00	1.029938e+00	1.035246e+00	1.037178e+00	1.037103e+00	1.033863e+00	1.024498e+00	1.011563e+00	1.002191e+00	9.982986e-01	9.971616e-01	9.968660e-01	9.967783e-01	9.967310e-01	9.966747e-01	9.965828e-01	9.964426e-01	9.962568e-01	9.960346e-01	9.957807e-01	9.954927e-01	9.951641e-01	9.947853e-01	9.943334e-01	9.937522e-01	9.929185e-01	9.916440e-01	9.897417e-01	9.872275e-01	9.844258e-01	9.818675e-01	9.801321e-01	9.795379e-01	9.795649e-01	9.806414e-01	9.837608e-01	9.890027e-01	9.961260e-01	1.004821e+00	1.014402e+00	1.023783e+00	1.031864e+00	1.037568e+00	1.039864e+00	1.039938e+00	1.037130e+00	1.028185e+00	1.015058e+00	1.005270e+00	1.001302e+00	1.000268e+00	1.000054e+00	1.000011e+00	1.000003e+00	1.000001e+00	1.000000e+00	1.000000e+00	1.000000e+00	1.000000e+00	1.000000e+00	1.000000e+00	1.000000e+00	1.000000e+00	1.000000e+00	1.000000e+00	1.000000e+00	1.000000e+00	1.000000e+00	1.000000e+00	1.000000e+00	1.000000e+00	1.000000e+00	9.940919e-01	9.940559e-01	9.940720e-01	9.940078e-01	9.939330e-01	9.938269e-01	9.936863e-01	9.935114e-01	9.933030e-01	9.930517e-01	9.927538e-01	9.923949e-01	9.919232e-01	9.912593e-01	9.902661e-01	9.888243e-01	9.868614e-01	9.844753e-01	9.819417e-01	9.797812e-01	9.786229e-01	9.783294e-01	9.784791e-01	9.798321e-01	9.832047e-01	9.886447e-01	9.956372e-01	1.003876e+00	1.012852e+00	1.021814e+00	1.029606e+00	1.034442e+00	1.035900e+00	1.035716e+00	1.032768e+00	1.024254e+00	1.012367e+00	1.003125e+00	9.987427e-01	9.972942e-01	9.969018e-01	9.967855e-01	9.967278e-01	9.966678e-01	9.965761e-01	9.964391e-01	9.962568e-01	9.960367e-01	9.957823e-01	9.954914e-01	9.951591e-01	9.947721e-01	9.942975e-01	9.936582e-01	9.927377e-01	9.913826e-01	9.894877e-01	9.870936e-01	9.844630e-01	9.821187e-01	9.806989e-01	9.802378e-01	9.802931e-01	9.813635e-01	9.844091e-01	9.896499e-01	9.965850e-01	1.004900e+00	1.014085e+00	1.023348e+00	1.031532e+00	1.036859e+00	1.038576e+00	1.038511e+00	1.035939e+00	1.027898e+00	1.015937e+00	1.006229e+00	1.001694e+00	1.000353e+00	1.000062e+00	1.000010e+00	1.000002e+00	1.000000e+00	1.000000e+00	1.000000e+00	1.000000e+00	1.000000e+00	1.000000e+00	1.000000e+00	1.000000e+00	1.000000e+00	1.000000e+00	1.000000e+00	1.000000e+00	1.000000e+00	1.000000e+00	1.000000e+00	1.000000e+00	1.000000e+00	1.000000e+00	9.940318e-01	9.939949e-01	9.940078e-01	9.939432e-01	9.938656e-01	9.937562e-01	9.936124e-01	9.934318e-01	9.932183e-01	9.929634e-01	9.926552e-01	9.922679e-01	9.917355e-01	9.909616e-01	9.898235e-01	9.882560e-01	9.862683e-01	9.839747e-01	9.816956e-01	9.800142e-01	9.792426e-01	9.790724e-01	9.793607e-01	9.809614e-01	9.844784e-01	9.898468e-01	9.966522e-01	1.004499e+00	1.013153e+00	1.022043e+00	1.029546e+00	1.033540e+00	1.034490e+00	1.034117e+00	1.030985e+00	1.023120e+00	1.012672e+00	1.004121e+00	9.994094e-01	9.975435e-01	9.969503e-01	9.967688e-01	9.966879e-01	9.966161e-01	9.965196e-01	9.963811e-01	9.961975e-01	9.959744e-01	9.957153e-01	9.954184e-01	9.950757e-01	9.946672e-01	9.941445e-01	9.934098e-01	9.923450e-01	9.908414e-01	9.888778e-01	9.865462e-01	9.841672e-01	9.822907e-01	9.812692e-01	9.809993e-01	9.811829e-01	9.824822e-01	9.857054e-01	9.909134e-01	9.977033e-01	1.005601e+00	1.014404e+00	1.023577e+00	1.031550e+00	1.036007e+00	1.037190e+00	1.036921e+00	1.034140e+00	1.026689e+00	1.016250e+00	1.007329e+00	1.002395e+00	1.000570e+00	1.000105e+00	1.000017e+00	1.000003e+00	1.000001e+00	1.000000e+00	1.000000e+00	1.000000e+00	1.000000e+00	1.000000e+00	1.000000e+00	1.000000e+00	1.000000e+00	1.000000e+00	1.000000e+00	1.000000e+00	1.000000e+00	1.000000e+00	1.000000e+00	1.000000e+00	1.000000e+00	1.000000e+00	9.939609e-01	9.939214e-01	9.939330e-01	9.938656e-01	9.937818e-01	9.936655e-01	9.935157e-01	9.933275e-01	9.931049e-01	9.928407e-01	9.925119e-01	9.920673e-01	9.914307e-01	9.905040e-01	9.891974e-01	9.874917e-01	9.854867e-01	9.833993e-01	9.816262e-01	9.805425e-01	9.800862e-01	9.800568e-01	9.805626e-01	9.824346e-01	9.861529e-01	9.914864e-01	9.979723e-01	1.005354e+00	1.013664e+00	1.022244e+00	1.028949e+00	1.032129e+00	1.032639e+00	1.032078e+00	1.028705e+00	1.021568e+00	1.012845e+00	1.005367e+00	1.000441e+00	9.979788e-01	9.970578e-01	9.967607e-01	9.966408e-01	9.965529e-01	9.964491e-01	9.963077e-01	9.961216e-01	9.958929e-01	9.956268e-01	9.953227e-01	9.949640e-01	9.945151e-01	9.938981e-01	9.930244e-01	9.917717e-01	9.900936e-01	9.880602e-01	9.859056e-01	9.840120e-01	9.827296e-01	9.820959e-01	9.820289e-01	9.823795e-01	9.839646e-01	9.874271e-01	9.926547e-01	9.991367e-01	1.006559e+00	1.014956e+00	1.023827e+00	1.031066e+00	1.034685e+00	1.035340e+00	1.034899e+00	1.031871e+00	1.025066e+00	1.016380e+00	1.008669e+00	1.003485e+00	1.000994e+00	1.000202e+00	1.000032e+00	1.000005e+00	1.000001e+00	1.000000e+00	1.000000e+00	1.000000e+00	1.000000e+00	1.000000e+00	1.000000e+00	1.000000e+00	1.000000e+00	1.000000e+00	1.000000e+00	1.000000e+00	1.000000e+00	1.000000e+00	1.000000e+00	1.000000e+00	1.000000e+00	1.000000e+00	9.938604e-01	9.938175e-01	9.938269e-01	9.937562e-01	9.936655e-01	9.935413e-01	9.933853e-01	9.931905e-01	9.929566e-01	9.926738e-01	9.923015e-01	9.917692e-01	9.909803e-01	9.898374e-01	9.883194e-01	9.865038e-01	9.845925e-01	9.829241e-01	9.817987e-01	9.812146e-01	9.811323e-01	9.812665e-01	9.821087e-01	9.843461e-01	9.882353e-01	9.934461e-01	9.995654e-01	1.006527e+00	1.014374e+00	1.022266e+00	1.027958e+00	1.030225e+00	1.030443e+00	1.029592e+00	1.026029e+00	1.019793e+00	1.012903e+00	1.006688e+00	1.001725e+00	9.986101e-01	9.972298e-01	9.967569e-01	9.965799e-01	9.964699e-01	9.963554e-01	9.962080e-01	9.960172e-01	9.957826e-01	9.955087e-01	9.951906e-01	9.948031e-01	9.942774e-01	9.935290e-01	9.924334e-01	9.909325e-01	9.890822e-01	9.871049e-01	9.853487e-01	9.840835e-01	9.833277e-01	9.831527e-01	9.832524e-01	9.839102e-01	9.858864e-01	9.895841e-01	9.947408e-01	1.000882e+00	1.007855e+00	1.015751e+00	1.023929e+00	1.030133e+00	1.032835e+00	1.033150e+00	1.032462e+00	1.029210e+00	1.023209e+00	1.016377e+00	1.010054e+00	1.004867e+00	1.001646e+00	1.000375e+00	1.000063e+00	1.000009e+00	1.000001e+00	1.000000e+00	1.000000e+00	1.000000e+00	1.000000e+00	1.000000e+00	1.000000e+00	1.000000e+00	1.000000e+00	1.000000e+00	1.000000e+00	1.000000e+00	1.000000e+00	1.000000e+00	1.000000e+00	1.000000e+00	1.000000e+00	1.000000e+00	9.937261e-01	9.936808e-01	9.936863e-01	9.936124e-01	9.935157e-01	9.933853e-01	9.932236e-01	9.930202e-01	9.927704e-01	9.924505e-01	9.919974e-01	9.913304e-01	9.903329e-01	9.889467e-01	9.872239e-01	9.853826e-01	9.837799e-01	9.827212e-01	9.822096e-01	9.821436e-01	9.822808e-01	9.827535e-01	9.840623e-01	9.866788e-01	9.906531e-01	9.956555e-01	1.001415e+00	1.007962e+00	1.015113e+00	1.021850e+00	1.026435e+00	1.027865e+00	1.027879e+00	1.026698e+00	1.023140e+00	1.018036e+00	1.012939e+00	1.007979e+00	1.003146e+00	9.994103e-01	9.974748e-01	9.967621e-01	9.965064e-01	9.963676e-01	9.962402e-01	9.960852e-01	9.958885e-01	9.956495e-01	9.953655e-01	9.950209e-01	9.945696e-01	9.939272e-01	9.929651e-01	9.915904e-01	9.898279e-01	9.879119e-01	9.862296e-01	9.850607e-01	9.844120e-01	9.842283e-01	9.843323e-01	9.847032e-01	9.858270e-01	9.882471e-01	9.921186e-01	9.971146e-01	1.002900e+00	1.009447e+00	1.016626e+00	1.023627e+00	1.028720e+00	1.030520e+00	1.030609e+00	1.029630e+00	1.026342e+00	1.021375e+00	1.016329e+00	1.011378e+00	1.006405e+00	1.002512e+00	1.000641e+00	1.000114e+00	1.000017e+00	1.000002e+00	1.000000e+00	1.000000e+00	1.000000e+00	1.000000e+00	1.000000e+00	1.000000e+00	1.000000e+00	1.000000e+00	1.000000e+00	1.000000e+00	1.000000e+00	1.000000e+00	1.000000e+00	1.000000e+00	1.000000e+00	1.000000e+00	1.000000e+00	9.935596e-01	9.935108e-01	9.935114e-01	9.934318e-01	9.933275e-01	9.931905e-01	9.930202e-01	9.928021e-01	9.925222e-01	9.921271e-01	9.915523e-01	9.906786e-01	9.894244e-01	9.877815e-01	9.859356e-01	9.843144e-01	9.832975e-01	9.829171e-01	9.828991e-01	9.831400e-01	9.836427e-01	9.846155e-01	9.864473e-01	9.893879e-01	9.933427e-01	9.980773e-01	1.003483e+00	1.009489e+00	1.015678e+00	1.021007e+00	1.024247e+00	1.025087e+00	1.024907e+00	1.023498e+00	1.020277e+00	1.016506e+00	1.013005e+00	1.009172e+00	1.004584e+00	1.000325e+00	9.977900e-01	9.967797e-01	9.964191e-01	9.962413e-01	9.960956e-01	9.959311e-01	9.957279e-01	9.954808e-01	9.951778e-01	9.947827e-01	9.942193e-01	9.933709e-01	9.921139e-01	9.904184e-01	9.884974e-01	9.868079e-01	9.856971e-01	9.851929e-01	9.850585e-01	9.852456e-01	9.856639e-01	9.865071e-01	9.881734e-01	9.910032e-01	9.949557e-01	9.997353e-01	1.005159e+00	1.011156e+00	1.017371e+00	1.022878e+00	1.026615e+00	1.027783e+00	1.027686e+00	1.026494e+00	1.023485e+00	1.019769e+00	1.016327e+00	1.012584e+00	1.007963e+00	1.003535e+00	1.001005e+00	1.000194e+00	1.000030e+00	1.000004e+00	1.000001e+00	1.000000e+00	1.000000e+00	1.000000e+00	1.000000e+00	1.000000e+00	1.000000e+00	1.000000e+00	1.000000e+00	1.000000e+00	1.000000e+00	1.000000e+00	1.000000e+00	1.000000e+00	1.000000e+00	1.000000e+00	1.000000e+00	9.933599e-01	9.933053e-01	9.933030e-01	9.932183e-01	9.931049e-01	9.929566e-01	9.927704e-01	9.925222e-01	9.921659e-01	9.916563e-01	9.908779e-01	9.897417e-01	9.881896e-01	9.863431e-01	9.846650e-01	9.836258e-01	9.833405e-01	9.833684e-01	9.836980e-01	9.843479e-01	9.853499e-01	9.868987e-01	9.892366e-01	9.924040e-01	9.962593e-01	1.000685e+00	1.005662e+00	1.010916e+00	1.015761e+00	1.019534e+00	1.021448e+00	1.021866e+00	1.021557e+00	1.020176e+00	1.017711e+00	1.015321e+00	1.013135e+00	1.010219e+00	1.005933e+00	1.001282e+00	9.981634e-01	9.968151e-01	9.963246e-01	9.960977e-01	9.959293e-01	9.957528e-01	9.955399e-01	9.952713e-01	9.949194e-01	9.944189e-01	9.936581e-01	9.924993e-01	9.908683e-01	9.889415e-01	9.872086e-01	9.861124e-01	9.856907e-01	9.856131e-01	9.858651e-01	9.864352e-01	9.873215e-01	9.887228e-01	9.909418e-01	9.941029e-01	9.980474e-01	1.002563e+00	1.007561e+00	1.012788e+00	1.017684e+00	1.021622e+00	1.023876e+00	1.024591e+00	1.024383e+00	1.023229e+00	1.020912e+00	1.018537e+00	1.016417e+00	1.013644e+00	1.009435e+00	1.004638e+00	1.001462e+00	1.000306e+00	1.000049e+00	1.000007e+00	1.000001e+00	1.000000e+00	1.000000e+00	1.000000e+00	1.000000e+00	1.000000e+00	1.000000e+00	1.000000e+00	1.000000e+00	1.000000e+00	1.000000e+00	1.000000e+00	1.000000e+00	1.000000e+00	1.000000e+00	1.000000e+00	1.000000e+00	9.931171e-01	9.930556e-01	9.930517e-01	9.929634e-01	9.928407e-01	9.926738e-01	9.924505e-01	9.921271e-01	9.916563e-01	9.909464e-01	9.899051e-01	9.884438e-01	9.866244e-01	9.848852e-01	9.838206e-01	9.835755e-01	9.836258e-01	9.839637e-01	9.847253e-01	9.858800e-01	9.874613e-01	9.895989e-01	9.923663e-01	9.956525e-01	9.993418e-01	1.003427e+00	1.007787e+00	1.011979e+00	1.015286e+00	1.017299e+00	1.018081e+00	1.018198e+00	1.017913e+00	1.017059e+00	1.015686e+00	1.014531e+00	1.013304e+00	1.011092e+00	1.007116e+00	1.002205e+00	9.985684e-01	9.968641e-01	9.962199e-01	9.959326e-01	9.957369e-01	9.955416e-01	9.953073e-01	9.949947e-01	9.945409e-01	9.938441e-01	9.927622e-01	9.911879e-01	9.892653e-01	9.874968e-01	9.864067e-01	9.860269e-01	9.859733e-01	9.862116e-01	9.868760e-01	9.879255e-01	9.893676e-01	9.913722e-01	9.940973e-01	9.974873e-01	1.001349e+00	1.005542e+00	1.009898e+00	1.014053e+00	1.017392e+00	1.019632e+00	1.020597e+00	1.020932e+00	1.020765e+00	1.020116e+00	1.018859e+00	1.017748e+00	1.016579e+00	1.014554e+00	1.010745e+00	1.005742e+00	1.001990e+00	1.000453e+00	1.000077e+00	1.000012e+00	1.000002e+00	1.000000e+00	1.000000e+00	1.000000e+00	1.000000e+00	1.000000e+00	1.000000e+00	1.000000e+00	1.000000e+00	1.000000e+00	1.000000e+00	1.000000e+00	1.000000e+00	1.000000e+00	1.000000e+00	1.000000e+00	1.000000e+00	9.928304e-01	9.927616e-01	9.927538e-01	9.926552e-01	9.925119e-01	9.923015e-01	9.919974e-01	9.915523e-01	9.908779e-01	9.899051e-01	9.885317e-01	9.867681e-01	9.850134e-01	9.839454e-01	9.837276e-01	9.837843e-01	9.840782e-01	9.848427e-01	9.861154e-01	9.878393e-01	9.900245e-01	9.926865e-01	9.957494e-01	9.990528e-01	1.002514e+00	1.006166e+00	1.009620e+00	1.012236e+00	1.013971e+00	1.014323e+00	1.014260e+00	1.014126e+00	1.014220e+00	1.014450e+00	1.014276e+00	1.014050e+00	1.013477e+00	1.011784e+00	1.008080e+00	1.003037e+00	9.989808e-01	9.969254e-01	9.961077e-01	9.957443e-01	9.955075e-01	9.952791e-01	9.949906e-01	9.945726e-01	9.939216e-01	9.928940e-01	9.913671e-01	9.894708e-01	9.877155e-01	9.866556e-01	9.863001e-01	9.862437e-01	9.864351e-01	9.870712e-01	9.882230e-01	9.898191e-01	9.918661e-01	9.944490e-01	9.975701e-01	1.001075e+00	1.004771e+00	1.008526e+00	1.011954e+00	1.014544e+00	1.016374e+00	1.016898e+00	1.016913e+00	1.016849e+00	1.017041e+00	1.017516e+00	1.017453e+00	1.017293e+00	1.016800e+00	1.015308e+00	1.011845e+00	1.006783e+00	1.002566e+00	1.000637e+00	1.000116e+00	1.000018e+00	1.000003e+00	1.000000e+00	1.000000e+00	1.000000e+00	1.000000e+00	1.000000e+00	1.000000e+00	1.000000e+00	1.000000e+00	1.000000e+00	1.000000e+00	1.000000e+00	1.000000e+00	1.000000e+00	1.000000e+00	1.000000e+00	1.000000e+00	9.924911e-01	9.924130e-01	9.923949e-01	9.922679e-01	9.920673e-01	9.917692e-01	9.913304e-01	9.906786e-01	9.897417e-01	9.884438e-01	9.867681e-01	9.850527e-01	9.839990e-01	9.838147e-01	9.838888e-01	9.841439e-01	9.848467e-01	9.861314e-01	9.879626e-01	9.902762e-01	9.930241e-01	9.960929e-01	9.993163e-01	1.002583e+00	1.005820e+00	1.008650e+00	1.010641e+00	1.011682e+00	1.011506e+00	1.010716e+00	1.010128e+00	1.009961e+00	1.010741e+00	1.012518e+00	1.013669e+00	1.013800e+00	1.013599e+00	1.012249e+00	1.008799e+00	1.003743e+00	9.993708e-01	9.969875e-01	9.959800e-01	9.955201e-01	9.952170e-01	9.949144e-01	9.945088e-01	9.938817e-01	9.928861e-01	9.913979e-01	9.895506e-01	9.878627e-01	9.868640e-01	9.865354e-01	9.864748e-01	9.866224e-01	9.871690e-01	9.883043e-01	9.900021e-01	9.921901e-01	9.948487e-01	9.979342e-01	1.001321e+00	1.004855e+00	1.008323e+00	1.011256e+00	1.013244e+00	1.014247e+00	1.014190e+00	1.013488e+00	1.012898e+00	1.012709e+00	1.013510e+00	1.015516e+00	1.016950e+00	1.017124e+00	1.017000e+00	1.015875e+00	1.012721e+00	1.007718e+00	1.003162e+00	1.000853e+00	1.000166e+00	1.000027e+00	1.000004e+00	1.000001e+00	1.000000e+00	1.000000e+00	1.000000e+00	1.000000e+00	1.000000e+00	1.000000e+00	1.000000e+00	1.000000e+00	1.000000e+00	1.000000e+00	1.000000e+00	1.000000e+00	1.000000e+00	1.000000e+00	1.000000e+00	9.920696e-01	9.919753e-01	9.919232e-01	9.917355e-01	9.914307e-01	9.909803e-01	9.903329e-01	9.894244e-01	9.881896e-01	9.866244e-01	9.850134e-01	9.839990e-01	9.838414e-01	9.839409e-01	9.841844e-01	9.848304e-01	9.860643e-01	9.879109e-01	9.903106e-01	9.931862e-01	9.964045e-01	9.997682e-01	1.003116e+00	1.006278e+00	1.008791e+00	1.010141e+00	1.010474e+00	1.010084e+00	1.008329e+00	1.006492e+00	1.005823e+00	1.005963e+00	1.008059e+00	1.011450e+00	1.013409e+00	1.013779e+00	1.013692e+00	1.012532e+00	1.009284e+00	1.004295e+00	9.997096e-01	9.970257e-01	9.958100e-01	9.952183e-01	9.948039e-01	9.943536e-01	9.937134e-01	9.927234e-01	9.912705e-01	9.895069e-01	9.879487e-01	9.870482e-01	9.867473e-01	9.866842e-01	9.868074e-01	9.872701e-01	9.883190e-01	9.900092e-01	9.922776e-01	9.950671e-01	9.982946e-01	1.001796e+00	1.005393e+00	1.008834e+00	1.011584e+00	1.013024e+00	1.013275e+00	1.012974e+00	1.011317e+00	1.009424e+00	1.008667e+00	1.008709e+00	1.010730e+00	1.014421e+00	1.016706e+00	1.017208e+00	1.017187e+00	1.016265e+00	1.013387e+00	1.008527e+00	1.003754e+00	1.001095e+00	1.000226e+00	1.000037e+00	1.000006e+00	1.000001e+00	1.000000e+00	1.000000e+00	1.000000e+00	1.000000e+00	1.000000e+00	1.000000e+00	1.000000e+00	1.000000e+00	1.000000e+00	1.000000e+00	1.000000e+00	1.000000e+00	1.000000e+00	1.000000e+00	1.000000e+00	9.915038e-01	9.913794e-01	9.912593e-01	9.909616e-01	9.905040e-01	9.898374e-01	9.889467e-01	9.877815e-01	9.863431e-01	9.848852e-01	9.839454e-01	9.838147e-01	9.839409e-01	9.842000e-01	9.848242e-01	9.860060e-01	9.878122e-01	9.902112e-01	9.931508e-01	9.965289e-01	1.000154e+00	1.003792e+00	1.007114e+00	1.009499e+00	1.010475e+00	1.010439e+00	1.009698e+00	1.007301e+00	1.004070e+00	1.002168e+00	1.001690e+00	1.002630e+00	1.006374e+00	1.010961e+00	1.013231e+00	1.013675e+00	1.013602e+00	1.012550e+00	1.009514e+00	1.004656e+00	9.999543e-01	9.969947e-01	9.955408e-01	9.947632e-01	9.941479e-01	9.934238e-01	9.923985e-01	9.909761e-01	9.893394e-01	9.879771e-01	9.872129e-01	9.869474e-01	9.868790e-01	9.869915e-01	9.874026e-01	9.883648e-01	9.899901e-01	9.922480e-01	9.950946e-01	9.984721e-01	1.002230e+00	1.006115e+00	1.009730e+00	1.012410e+00	1.013547e+00	1.013532e+00	1.012819e+00	1.010574e+00	1.007298e+00	1.005157e+00	1.004574e+00	1.005287e+00	1.008990e+00	1.014017e+00	1.016695e+00	1.017312e+00	1.017327e+00	1.016528e+00	1.013883e+00	1.009216e+00	1.004320e+00	1.001350e+00	1.000295e+00	1.000051e+00	1.000008e+00	1.000001e+00	1.000000e+00	1.000000e+00	1.000000e+00	1.000000e+00	1.000000e+00	1.000000e+00	1.000000e+00	1.000000e+00	1.000000e+00	1.000000e+00	1.000000e+00	1.000000e+00	1.000000e+00	1.000000e+00	1.000000e+00	9.906447e-01	9.904774e-01	9.902661e-01	9.898235e-01	9.891974e-01	9.883194e-01	9.872239e-01	9.859356e-01	9.846650e-01	9.838206e-01	9.837276e-01	9.838888e-01	9.841844e-01	9.848242e-01	9.859869e-01	9.877506e-01	9.901017e-01	9.930172e-01	9.964653e-01	1.000342e+00	1.004376e+00	1.008032e+00	1.010495e+00	1.011366e+00	1.011202e+00	1.010161e+00	1.007399e+00	1.003075e+00	9.995006e-01	9.981834e-01	9.980947e-01	1.000304e+00	1.005580e+00	1.010692e+00	1.013018e+00	1.013481e+00	1.013421e+00	1.012443e+00	1.009566e+00	1.004855e+00	1.000048e+00	9.968000e-01	9.950517e-01	9.939957e-01	9.930551e-01	9.919320e-01	9.905368e-01	9.890682e-01	9.879514e-01	9.873575e-01	9.871402e-01	9.870717e-01	9.871780e-01	9.875622e-01	9.884675e-01	9.900296e-01	9.922366e-01	9.950598e-01	9.985015e-01	1.002486e+00	1.006754e+00	1.010737e+00	1.013521e+00	1.014580e+00	1.014500e+00	1.013488e+00	1.010980e+00	1.006718e+00	1.002782e+00	1.001163e+00	1.000931e+00	1.002901e+00	1.008333e+00	1.013938e+00	1.016760e+00	1.017376e+00	1.017399e+00	1.016685e+00	1.014253e+00	1.009793e+00	1.004841e+00	1.001606e+00	1.000368e+00	1.000065e+00	1.000010e+00	1.000002e+00	1.000000e+00	1.000000e+00	1.000000e+00	1.000000e+00	1.000000e+00	1.000000e+00	1.000000e+00	1.000000e+00	1.000000e+00	1.000000e+00	1.000000e+00	1.000000e+00	1.000000e+00	1.000000e+00	1.000000e+00	9.892962e-01	9.890891e-01	9.888243e-01	9.882560e-01	9.874917e-01	9.865038e-01	9.853826e-01	9.843144e-01	9.836258e-01	9.835755e-01	9.837843e-01	9.841439e-01	9.848304e-01	9.860060e-01	9.877506e-01	9.900587e-01	9.929078e-01	9.963233e-01	1.000328