# vtk DataFile Version 3.0
vtk output
ASCII
DATASET STRUCTURED_GRID
DIMENSIONS 101 101 1
POINTS 10201 double
0.000000e+00	0.000000e+00	0.0	1.000000e-02	0.000000e+00	0.0	2.000000e-02	0.000000e+00	0.0	3.000000e-02	0.000000e+00	0.0	4.000000e-02	0.000000e+00	0.0	5.000000e-02	0.000000e+00	0.0	6.000000e-02	0.000000e+00	0.0	7.000000e-02	0.000000e+00	0.0	8.000000e-02	0.000000e+00	0.0	9.000000e-02	0.000000e+00	0.0	1.000000e-01	0.000000e+00	0.0	1.100000e-01	0.000000e+00	0.0	1.200000e-01	0.000000e+00	0.0	1.300000e-01	0.000000e+00	0.0	1.400000e-01	0.000000e+00	0.0	1.500000e-01	0.000000e+00	0.0	1.600000e-01	0.000000e+00	0.0	1.700000e-01	0.000000e+00	0.0	1.800000e-01	0.000000e+00	0.0	1.900000e-01	0.000000e+00	0.0	2.000000e-01	0.000000e+00	0.0	2.100000e-01	0.000000e+00	0.0	2.200000e-01	0.000000e+00	0.0	2.300000e-01	0.000000e+00	0.0	2.400000e-01	0.000000e+00	0.0	2.500000e-01	0.000000e+00	0.0	2.600000e-01	0.000000e+00	0.0	2.700000e-01	0.000000e+00	0.0	2.800000e-01	0.000000e+00	0.0	2.900000e-01	0.000000e+00	0.0	3.000000e-01	0.000000e+00	0.0	3.100000e-01	0.000000e+00	0.0	3.200000e-01	0.000000e+00	0.0	3.300000e-01	0.000000e+00	0.0	3.400000e-01	0.000000e+00	0.0	3.500000e-01	0.000000e+00	0.0	3.600000e-01	0.000000e+00	0.0	3.700000e-01	0.000000e+00	0.0	3.800000e-01	0.000000e+00	0.0	3.900000e-01	0.000000e+00	0.0	4.000000e-01	0.000000e+00	0.0	4.100000e-01	0.000000e+00	0.0	4.200000e-01	0.000000e+00	0.0	4.300000e-01	0.000000e+00	0.0	4.400000e-01	0.000000e+00	0.0	4.500000e-01	0.000000e+00	0.0	4.600000e-01	0.000000e+00	0.0	4.700000e-01	0.000000e+00	0.0	4.800000e-01	0.000000e+00	0.0	4.900000e-01	0.000000e+00	0.0	5.000000e-01	0.000000e+00	0.0	5.100000e-01	0.000000e+00	0.0	5.200000e-01	0.000000e+00	0.0	5.300000e-01	0.000000e+00	0.0	5.400000e-01	0.000000e+00	0.0	5.500000e-01	0.000000e+00	0.0	5.600000e-01	0.000000e+00	0.0	5.700000e-01	0.000000e+00	0.0	5.800000e-01	0.000000e+00	0.0	5.900000e-01	0.000000e+00	0.0	6.000000e-01	0.000000e+00	0.0	6.100000e-01	0.000000e+00	0.0	6.200000e-01	0.000000e+00	0.0	6.300000e-01	0.000000e+00	0.0	6.400000e-01	0.000000e+00	0.0	6.500000e-01	0.000000e+00	0.0	6.600000e-01	0.000000e+00	0.0	6.700000e-01	0.000000e+00	0.0	6.800000e-01	0.000000e+00	0.0	6.900000e-01	0.000000e+00	0.0	7.000000e-01	0.000000e+00	0.0	7.100000e-01	0.000000e+00	0.0	7.200000e-01	0.000000e+00	0.0	7.300000e-01	0.000000e+00	0.0	7.400000e-01	0.000000e+00	0.0	7.500000e-01	0.000000e+00	0.0	7.600000e-01	0.000000e+00	0.0	7.700000e-01	0.000000e+00	0.0	7.800000e-01	0.000000e+00	0.0	7.900000e-01	0.000000e+00	0.0	8.000000e-01	0.000000e+00	0.0	8.100000e-01	0.000000e+00	0.0	8.200000e-01	0.000000e+00	0.0	8.300000e-01	0.000000e+00	0.0	8.400000e-01	0.000000e+00	0.0	8.500000e-01	0.000000e+00	0.0	8.600000e-01	0.000000e+00	0.0	8.700000e-01	0.000000e+00	0.0	8.800000e-01	0.000000e+00	0.0	8.900000e-01	0.000000e+00	0.0	9.000000e-01	0.000000e+00	0.0	9.100000e-01	0.000000e+00	0.0	9.200000e-01	0.000000e+00	0.0	9.300000e-01	0.000000e+00	0.0	9.400000e-01	0.000000e+00	0.0	9.500000e-01	0.000000e+00	0.0	9.600000e-01	0.000000e+00	0.0	9.700000e-01	0.000000e+00	0.0	9.800000e-01	0.000000e+00	0.0	9.900000e-01	0.000000e+00	0.0	1.000000e+00	0.000000e+00	0.0	0.000000e+00	1.000000e-02	0.0	1.000000e-02	1.000000e-02	0.0	2.000000e-02	1.000000e-02	0.0	3.000000e-02	1.000000e-02	0.0	4.000000e-02	1.000000e-02	0.0	5.000000e-02	1.000000e-02	0.0	6.000000e-02	1.000000e-02	0.0	7.000000e-02	1.000000e-02	0.0	8.000000e-02	1.000000e-02	0.0	9.000000e-02	1.000000e-02	0.0	1.000000e-01	1.000000e-02	0.0	1.100000e-01	1.000000e-02	0.0	1.200000e-01	1.000000e-02	0.0	1.300000e-01	1.000000e-02	0.0	1.400000e-01	1.000000e-02	0.0	1.500000e-01	1.000000e-02	0.0	1.600000e-01	1.000000e-02	0.0	1.700000e-01	1.000000e-02	0.0	1.800000e-01	1.000000e-02	0.0	1.900000e-01	1.000000e-02	0.0	2.000000e-01	1.000000e-02	0.0	2.100000e-01	1.000000e-02	0.0	2.200000e-01	1.000000e-02	0.0	2.300000e-01	1.000000e-02	0.0	2.400000e-01	1.000000e-02	0.0	2.500000e-01	1.000000e-02	0.0	2.600000e-01	1.000000e-02	0.0	2.700000e-01	1.000000e-02	0.0	2.800000e-01	1.000000e-02	0.0	2.900000e-01	1.000000e-02	0.0	3.000000e-01	1.000000e-02	0.0	3.100000e-01	1.000000e-02	0.0	3.200000e-01	1.000000e-02	0.0	3.300000e-01	1.000000e-02	0.0	3.400000e-01	1.000000e-02	0.0	3.500000e-01	1.000000e-02	0.0	3.600000e-01	1.000000e-02	0.0	3.700000e-01	1.000000e-02	0.0	3.800000e-01	1.000000e-02	0.0	3.900000e-01	1.000000e-02	0.0	4.000000e-01	1.000000e-02	0.0	4.100000e-01	1.000000e-02	0.0	4.200000e-01	1.000000e-02	0.0	4.300000e-01	1.000000e-02	0.0	4.400000e-01	1.000000e-02	0.0	4.500000e-01	1.000000e-02	0.0	4.600000e-01	1.000000e-02	0.0	4.700000e-01	1.000000e-02	0.0	4.800000e-01	1.000000e-02	0.0	4.900000e-01	1.000000e-02	0.0	5.000000e-01	1.000000e-02	0.0	5.100000e-01	1.000000e-02	0.0	5.200000e-01	1.000000e-02	0.0	5.300000e-01	1.000000e-02	0.0	5.400000e-01	1.000000e-02	0.0	5.500000e-01	1.000000e-02	0.0	5.600000e-01	1.000000e-02	0.0	5.700000e-01	1.000000e-02	0.0	5.800000e-01	1.000000e-02	0.0	5.900000e-01	1.000000e-02	0.0	6.000000e-01	1.000000e-02	0.0	6.100000e-01	1.000000e-02	0.0	6.200000e-01	1.000000e-02	0.0	6.300000e-01	1.000000e-02	0.0	6.400000e-01	1.000000e-02	0.0	6.500000e-01	1.000000e-02	0.0	6.600000e-01	1.000000e-02	0.0	6.700000e-01	1.000000e-02	0.0	6.800000e-01	1.000000e-02	0.0	6.900000e-01	1.000000e-02	0.0	7.000000e-01	1.000000e-02	0.0	7.100000e-01	1.000000e-02	0.0	7.200000e-01	1.000000e-02	0.0	7.300000e-01	1.000000e-02	0.0	7.400000e-01	1.000000e-02	0.0	7.500000e-01	1.000000e-02	0.0	7.600000e-01	1.000000e-02	0.0	7.700000e-01	1.000000e-02	0.0	7.800000e-01	1.000000e-02	0.0	7.900000e-01	1.000000e-02	0.0	8.000000e-01	1.000000e-02	0.0	8.100000e-01	1.000000e-02	0.0	8.200000e-01	1.000000e-02	0.0	8.300000e-01	1.000000e-02	0.0	8.400000e-01	1.000000e-02	0.0	8.500000e-01	1.000000e-02	0.0	8.600000e-01	1.000000e-02	0.0	8.700000e-01	1.000000e-02	0.0	8.800000e-01	1.000000e-02	0.0	8.900000e-01	1.000000e-02	0.0	9.000000e-01	1.000000e-02	0.0	9.100000e-01	1.000000e-02	0.0	9.200000e-01	1.000000e-02	0.0	9.300000e-01	1.000000e-02	0.0	9.400000e-01	1.000000e-02	0.0	9.500000e-01	1.000000e-02	0.0	9.600000e-01	1.000000e-02	0.0	9.700000e-01	1.000000e-02	0.0	9.800000e-01	1.000000e-02	0.0	9.900000e-01	1.000000e-02	0.0	1.000000e+00	1.000000e-02	0.0	0.000000e+00	2.000000e-02	0.0	1.000000e-02	2.000000e-02	0.0	2.000000e-02	2.000000e-02	0.0	3.000000e-02	2.000000e-02	0.0	4.000000e-02	2.000000e-02	0.0	5.000000e-02	2.000000e-02	0.0	6.000000e-02	2.000000e-02	0.0	7.000000e-02	2.000000e-02	0.0	8.000000e-02	2.000000e-02	0.0	9.000000e-02	2.000000e-02	0.0	1.000000e-01	2.000000e-02	0.0	1.100000e-01	2.000000e-02	0.0	1.200000e-01	2.000000e-02	0.0	1.300000e-01	2.000000e-02	0.0	1.400000e-01	2.000000e-02	0.0	1.500000e-01	2.000000e-02	0.0	1.600000e-01	2.000000e-02	0.0	1.700000e-01	2.000000e-02	0.0	1.800000e-01	2.000000e-02	0.0	1.900000e-01	2.000000e-02	0.0	2.000000e-01	2.000000e-02	0.0	2.100000e-01	2.000000e-02	0.0	2.200000e-01	2.000000e-02	0.0	2.300000e-01	2.000000e-02	0.0	2.400000e-01	2.000000e-02	0.0	2.500000e-01	2.000000e-02	0.0	2.600000e-01	2.000000e-02	0.0	2.700000e-01	2.000000e-02	0.0	2.800000e-01	2.000000e-02	0.0	2.900000e-01	2.000000e-02	0.0	3.000000e-01	2.000000e-02	0.0	3.100000e-01	2.000000e-02	0.0	3.200000e-01	2.000000e-02	0.0	3.300000e-01	2.000000e-02	0.0	3.400000e-01	2.000000e-02	0.0	3.500000e-01	2.000000e-02	0.0	3.600000e-01	2.000000e-02	0.0	3.700000e-01	2.000000e-02	0.0	3.800000e-01	2.000000e-02	0.0	3.900000e-01	2.000000e-02	0.0	4.000000e-01	2.000000e-02	0.0	4.100000e-01	2.000000e-02	0.0	4.200000e-01	2.000000e-02	0.0	4.300000e-01	2.000000e-02	0.0	4.400000e-01	2.000000e-02	0.0	4.500000e-01	2.000000e-02	0.0	4.600000e-01	2.000000e-02	0.0	4.700000e-01	2.000000e-02	0.0	4.800000e-01	2.000000e-02	0.0	4.900000e-01	2.000000e-02	0.0	5.000000e-01	2.000000e-02	0.0	5.100000e-01	2.000000e-02	0.0	5.200000e-01	2.000000e-02	0.0	5.300000e-01	2.000000e-02	0.0	5.400000e-01	2.000000e-02	0.0	5.500000e-01	2.000000e-02	0.0	5.600000e-01	2.000000e-02	0.0	5.700000e-01	2.000000e-02	0.0	5.800000e-01	2.000000e-02	0.0	5.900000e-01	2.000000e-02	0.0	6.000000e-01	2.000000e-02	0.0	6.100000e-01	2.000000e-02	0.0	6.200000e-01	2.000000e-02	0.0	6.300000e-01	2.000000e-02	0.0	6.400000e-01	2.000000e-02	0.0	6.500000e-01	2.000000e-02	0.0	6.600000e-01	2.000000e-02	0.0	6.700000e-01	2.000000e-02	0.0	6.800000e-01	2.000000e-02	0.0	6.900000e-01	2.000000e-02	0.0	7.000000e-01	2.000000e-02	0.0	7.100000e-01	2.000000e-02	0.0	7.200000e-01	2.000000e-02	0.0	7.300000e-01	2.000000e-02	0.0	7.400000e-01	2.000000e-02	0.0	7.500000e-01	2.000000e-02	0.0	7.600000e-01	2.000000e-02	0.0	7.700000e-01	2.000000e-02	0.0	7.800000e-01	2.000000e-02	0.0	7.900000e-01	2.000000e-02	0.0	8.000000e-01	2.000000e-02	0.0	8.100000e-01	2.000000e-02	0.0	8.200000e-01	2.000000e-02	0.0	8.300000e-01	2.000000e-02	0.0	8.400000e-01	2.000000e-02	0.0	8.500000e-01	2.000000e-02	0.0	8.600000e-01	2.000000e-02	0.0	8.700000e-01	2.000000e-02	0.0	8.800000e-01	2.000000e-02	0.0	8.900000e-01	2.000000e-02	0.0	9.000000e-01	2.000000e-02	0.0	9.100000e-01	2.000000e-02	0.0	9.200000e-01	2.000000e-02	0.0	9.300000e-01	2.000000e-02	0.0	9.400000e-01	2.000000e-02	0.0	9.500000e-01	2.000000e-02	0.0	9.600000e-01	2.000000e-02	0.0	9.700000e-01	2.000000e-02	0.0	9.800000e-01	2.000000e-02	0.0	9.900000e-01	2.000000e-02	0.0	1.000000e+00	2.000000e-02	0.0	0.000000e+00	3.000000e-02	0.0	1.000000e-02	3.000000e-02	0.0	2.000000e-02	3.000000e-02	0.0	3.000000e-02	3.000000e-02	0.0	4.000000e-02	3.000000e-02	0.0	5.000000e-02	3.000000e-02	0.0	6.000000e-02	3.000000e-02	0.0	7.000000e-02	3.000000e-02	0.0	8.000000e-02	3.000000e-02	0.0	9.000000e-02	3.000000e-02	0.0	1.000000e-01	3.000000e-02	0.0	1.100000e-01	3.000000e-02	0.0	1.200000e-01	3.000000e-02	0.0	1.300000e-01	3.000000e-02	0.0	1.400000e-01	3.000000e-02	0.0	1.500000e-01	3.000000e-02	0.0	1.600000e-01	3.000000e-02	0.0	1.700000e-01	3.000000e-02	0.0	1.800000e-01	3.000000e-02	0.0	1.900000e-01	3.000000e-02	0.0	2.000000e-01	3.000000e-02	0.0	2.100000e-01	3.000000e-02	0.0	2.200000e-01	3.000000e-02	0.0	2.300000e-01	3.000000e-02	0.0	2.400000e-01	3.000000e-02	0.0	2.500000e-01	3.000000e-02	0.0	2.600000e-01	3.000000
[...]
POINT_DATA 10201

SCALARS Height double 1
LOOKUP_TABLE default
9.989500e-01	9.989749e-01	9.989637e-01	9.989606e-01	9.989555e-01	9.989500e-01	9.989455e-01	9.989403e-01	9.989382e-01	9.989386e-01	9.989377e-01	9.989345e-01	9.989288e-01	9.989216e-01	9.989138e-01	9.989063e-01	9.988997e-01	9.988978e-01	9.988994e-01	9.989002e-01	9.988983e-01	9.988875e-01	9.988690e-01	9.988474e-01	9.988259e-01	9.988043e-01	9.987852e-01	9.987677e-01	9.987517e-01	9.987366e-01	9.987215e-01	9.987053e-01	9.986874e-01	9.986673e-01	9.986450e-01	9.986209e-01	9.985950e-01	9.985673e-01	9.985373e-01	9.985050e-01	9.984699e-01	9.984315e-01	9.983897e-01	9.983444e-01	9.982958e-01	9.982439e-01	9.981884e-01	9.981287e-01	9.980641e-01	9.979939e-01	9.979173e-01	9.978334e-01	9.977411e-01	9.976386e-01	9.975239e-01	9.973955e-01	9.972516e-01	9.970901e-01	9.969064e-01	9.966908e-01	9.964242e-01	9.960733e-01	9.955876e-01	9.949012e-01	9.939488e-01	9.927133e-01	9.912951e-01	9.899409e-01	9.889302e-01	9.884175e-01	9.884128e-01	9.891468e-01	9.914944e-01	9.968099e-01	1.005221e+00	1.014534e+00	1.022332e+00	1.028271e+00	1.033251e+00	1.036911e+00	1.038145e+00	1.036391e+00	1.032372e+00	1.027220e+00	1.021098e+00	1.013099e+00	1.003687e+00	9.953418e-01	9.901600e-01	9.879150e-01	9.872213e-01	9.872834e-01	9.878749e-01	9.889470e-01	9.902971e-01	9.916329e-01	9.927179e-01	9.934660e-01	9.939193e-01	9.941263e-01	9.942475e-01	9.989624e-01	9.989865e-01	9.989664e-01	9.989633e-01	9.989585e-01	9.989529e-01	9.989477e-01	9.989438e-01	9.989425e-01	9.989419e-01	9.989400e-01	9.989358e-01	9.989290e-01	9.989208e-01	9.989118e-01	9.989028e-01	9.988939e-01	9.988908e-01	9.988891e-01	9.988872e-01	9.988841e-01	9.988757e-01	9.988588e-01	9.988405e-01	9.988198e-01	9.988021e-01	9.987840e-01	9.987671e-01	9.987516e-01	9.987368e-01	9.987219e-01	9.987059e-01	9.986882e-01	9.986681e-01	9.986458e-01	9.986217e-01	9.985955e-01	9.985674e-01	9.985370e-01	9.985043e-01	9.984688e-01	9.984297e-01	9.983873e-01	9.983415e-01	9.982923e-01	9.982397e-01	9.981835e-01	9.981231e-01	9.980579e-01	9.979870e-01	9.979098e-01	9.978254e-01	9.977324e-01	9.976293e-01	9.975141e-01	9.973851e-01	9.972406e-01	9.970784e-01	9.968938e-01	9.966773e-01	9.964096e-01	9.960576e-01	9.955712e-01	9.948846e-01	9.939332e-01	9.926972e-01	9.912690e-01	9.898836e-01	9.888277e-01	9.882859e-01	9.882817e-01	9.889306e-01	9.912349e-01	9.967547e-01	1.005435e+00	1.014731e+00	1.022372e+00	1.028282e+00	1.033366e+00	1.037275e+00	1.038553e+00	1.036720e+00	1.032457e+00	1.027223e+00	1.021145e+00	1.013298e+00	1.003886e+00	9.952683e-01	9.898956e-01	9.876995e-01	9.870855e-01	9.871445e-01	9.877774e-01	9.888993e-01	9.902699e-01	9.916162e-01	9.927061e-01	9.934530e-01	9.939031e-01	9.941051e-01	9.942218e-01	9.989684e-01	9.989931e-01	9.989715e-01	9.989685e-01	9.989643e-01	9.989587e-01	9.989528e-01	9.989476e-01	9.989442e-01	9.989429e-01	9.989404e-01	9.989355e-01	9.989280e-01	9.989191e-01	9.989098e-01	9.989006e-01	9.988918e-01	9.988921e-01	9.988888e-01	9.988876e-01	9.988850e-01	9.988754e-01	9.988598e-01	9.988374e-01	9.988163e-01	9.987954e-01	9.987788e-01	9.987623e-01	9.987476e-01	9.987336e-01	9.987194e-01	9.987041e-01	9.986871e-01	9.986681e-01	9.986466e-01	9.986231e-01	9.985976e-01	9.985700e-01	9.985399e-01	9.985074e-01	9.984722e-01	9.984339e-01	9.983923e-01	9.983472e-01	9.982985e-01	9.982461e-01	9.981899e-01	9.981295e-01	9.980643e-01	9.979937e-01	9.979166e-01	9.978320e-01	9.977388e-01	9.976353e-01	9.975197e-01	9.973906e-01	9.972459e-01	9.970833e-01	9.968976e-01	9.966784e-01	9.964062e-01	9.960482e-01	9.955545e-01	9.948620e-01	9.939130e-01	9.926944e-01	9.912899e-01	9.899043e-01	9.888373e-01	9.883346e-01	9.883416e-01	9.889856e-01	9.913754e-01	9.970518e-01	1.005738e+00	1.014765e+00	1.022174e+00	1.028005e+00	1.033048e+00	1.037124e+00	1.038558e+00	1.036534e+00	1.032144e+00	1.026961e+00	1.020958e+00	1.013349e+00	1.004201e+00	9.955687e-01	9.900408e-01	9.877599e-01	9.871478e-01	9.871823e-01	9.877828e-01	9.889157e-01	9.902772e-01	9.916026e-01	9.926810e-01	9.934286e-01	9.938856e-01	9.940945e-01	9.942120e-01	9.989633e-01	9.989857e-01	9.989680e-01	9.989655e-01	9.989621e-01	9.989568e-01	9.989510e-01	9.989454e-01	9.989421e-01	9.989406e-01	9.989384e-01	9.989340e-01	9.989269e-01	9.989186e-01	9.989100e-01	9.989023e-01	9.988926e-01	9.988943e-01	9.988916e-01	9.988903e-01	9.988877e-01	9.988782e-01	9.988611e-01	9.988388e-01	9.988167e-01	9.987963e-01	9.987785e-01	9.987621e-01	9.987473e-01	9.987332e-01	9.987190e-01	9.987035e-01	9.986860e-01	9.986663e-01	9.986450e-01	9.986215e-01	9.985958e-01	9.985678e-01	9.985373e-01	9.985043e-01	9.984687e-01	9.984302e-01	9.983886e-01	9.983436e-01	9.982948e-01	9.982421e-01	9.981852e-01	9.981241e-01	9.980585e-01	9.979876e-01	9.979103e-01	9.978252e-01	9.977312e-01	9.976267e-01	9.975104e-01	9.973806e-01	9.972355e-01	9.970721e-01	9.968845e-01	9.966614e-01	9.963825e-01	9.960150e-01	9.955088e-01	9.948031e-01	9.938458e-01	9.926316e-01	9.912320e-01	9.898389e-01	9.888008e-01	9.883783e-01	9.884108e-01	9.890705e-01	9.915286e-01	9.972950e-01	1.005969e+00	1.014839e+00	1.022100e+00	1.027859e+00	1.032874e+00	1.037132e+00	1.038769e+00	1.036515e+00	1.031973e+00	1.026826e+00	1.020892e+00	1.013425e+00	1.004429e+00	9.958150e-01	9.902023e-01	9.878549e-01	9.872221e-01	9.872124e-01	9.877331e-01	9.888413e-01	9.902066e-01	9.915279e-01	9.926062e-01	9.933634e-01	9.938331e-01	9.940498e-01	9.941756e-01	9.989619e-01	9.989830e-01	9.989670e-01	9.989653e-01	9.989620e-01	9.989561e-01	9.989499e-01	9.989433e-01	9.989402e-01	9.989387e-01	9.989362e-01	9.989312e-01	9.989239e-01	9.989155e-01	9.989070e-01	9.988998e-01	9.988909e-01	9.988926e-01	9.988905e-01	9.988892e-01	9.988862e-01	9.988766e-01	9.988587e-01	9.988363e-01	9.988140e-01	9.987934e-01	9.987751e-01	9.987587e-01	9.987441e-01	9.987302e-01	9.987161e-01	9.987004e-01	9.986829e-01	9.986632e-01	9.986415e-01	9.986181e-01	9.985926e-01	9.985647e-01	9.985342e-01	9.985011e-01	9.984653e-01	9.984269e-01	9.983855e-01	9.983407e-01	9.982920e-01	9.982389e-01	9.981815e-01	9.981196e-01	9.980533e-01	9.979820e-01	9.979044e-01	9.978189e-01	9.977240e-01	9.976184e-01	9.975011e-01	9.973706e-01	9.972248e-01	9.970601e-01	9.968698e-01	9.966413e-01	9.963535e-01	9.959728e-01	9.954497e-01	9.947269e-01	9.937584e-01	9.925398e-01	9.911336e-01	9.897515e-01	9.887968e-01	9.884695e-01	9.885351e-01	9.892226e-01	9.917368e-01	9.975587e-01	1.006181e+00	1.014909e+00	1.022029e+00	1.027701e+00	1.032715e+00	1.037109e+00	1.038838e+00	1.036473e+00	1.031816e+00	1.026678e+00	1.020825e+00	1.013491e+00	1.004636e+00	9.960872e-01	9.904290e-01	9.880163e-01	9.873482e-01	9.872865e-01	9.877064e-01	9.887364e-01	9.900941e-01	9.914192e-01	9.925052e-01	9.932768e-01	9.937629e-01	9.939900e-01	9.941270e-01	9.989599e-01	9.989803e-01	9.989658e-01	9.989646e-01	9.989608e-01	9.989540e-01	9.989471e-01	9.989405e-01	9.989369e-01	9.989351e-01	9.989325e-01	9.989278e-01	9.989204e-01	9.989122e-01	9.989042e-01	9.988976e-01	9.988896e-01	9.988909e-01	9.988895e-01	9.988878e-01	9.988840e-01	9.988754e-01	9.988555e-01	9.988338e-01	9.988115e-01	9.987915e-01	9.987730e-01	9.987566e-01	9.987421e-01	9.987285e-01	9.987143e-01	9.986985e-01	9.986807e-01	9.986609e-01	9.986389e-01	9.986151e-01	9.985894e-01	9.985613e-01	9.985307e-01	9.984974e-01	9.984615e-01	9.984228e-01	9.983812e-01	9.983362e-01	9.982872e-01	9.982336e-01	9.981754e-01	9.981126e-01	9.980453e-01	9.979731e-01	9.978948e-01	9.978086e-01	9.977130e-01	9.976065e-01	9.974880e-01	9.973565e-01	9.972096e-01	9.970431e-01	9.968488e-01	9.966137e-01	9.963146e-01	9.959165e-01	9.953735e-01	9.946316e-01	9.936473e-01	9.924086e-01	9.909881e-01	9.896519e-01	9.888284e-01	9.885948e-01	9.886858e-01	9.894275e-01	9.920194e-01	9.978614e-01	1.006381e+00	1.014958e+00	1.021956e+00	1.027576e+00	1.032615e+00	1.037059e+00	1.038797e+00	1.036417e+00	1.031714e+00	1.026552e+00	1.020748e+00	1.013535e+00	1.004835e+00	9.964035e-01	9.907346e-01	9.882352e-01	9.875076e-01	9.873911e-01	9.877010e-01	9.886127e-01	9.899343e-01	9.912715e-01	9.923772e-01	9.931677e-01	9.936734e-01	9.939134e-01	9.940630e-01	9.989579e-01	9.989760e-01	9.989642e-01	9.989625e-01	9.989580e-01	9.989507e-01	9.989437e-01	9.989380e-01	9.989343e-01	9.989325e-01	9.989296e-01	9.989247e-01	9.989176e-01	9.989098e-01	9.989023e-01	9.988959e-01	9.988890e-01	9.988881e-01	9.988874e-01	9.988850e-01	9.988804e-01	9.988712e-01	9.988505e-01	9.988298e-01	9.988077e-01	9.987883e-01	9.987700e-01	9.987537e-01	9.987392e-01	9.987257e-01	9.987113e-01	9.986956e-01	9.986778e-01	9.986576e-01	9.986352e-01	9.986110e-01	9.985849e-01	9.985567e-01	9.985261e-01	9.984930e-01	9.984571e-01	9.984183e-01	9.983763e-01	9.983309e-01	9.982815e-01	9.982276e-01	9.981688e-01	9.981052e-01	9.980369e-01	9.979634e-01	9.978839e-01	9.977968e-01	9.977004e-01	9.975930e-01	9.974734e-01	9.973404e-01	9.971914e-01	9.970216e-01	9.968222e-01	9.965779e-01	9.962649e-01	9.958468e-01	9.952774e-01	9.945092e-01	9.935012e-01	9.922357e-01	9.908077e-01	9.895641e-01	9.888955e-01	9.887400e-01	9.888743e-01	9.896999e-01	9.923860e-01	9.982140e-01	1.006573e+00	1.014979e+00	1.021878e+00	1.027493e+00	1.032550e+00	1.036948e+00	1.038658e+00	1.036315e+00	1.031641e+00	1.026453e+00	1.020665e+00	1.013558e+00	1.005037e+00	9.967761e-01	9.911249e-01	9.885186e-01	9.876965e-01	9.875312e-01	9.877203e-01	9.884865e-01	9.897354e-01	9.910791e-01	9.922110e-01	9.930321e-01	9.935664e-01	9.938213e-01	9.939852e-01	9.989526e-01	9.989691e-01	9.989597e-01	9.989575e-01	9.989524e-01	9.989451e-01	9.989391e-01	9.989347e-01	9.989316e-01	9.989298e-01	9.989268e-01	9.989221e-01	9.989158e-01	9.989089e-01	9.989023e-01	9.988960e-01	9.988908e-01	9.988866e-01	9.988865e-01	9.988823e-01	9.988768e-01	9.988650e-01	9.988454e-01	9.988251e-01	9.988037e-01	9.987849e-01	9.987666e-01	9.987503e-01	9.987356e-01	9.987216e-01	9.987073e-01	9.986914e-01	9.986736e-01	9.986533e-01	9.986307e-01	9.986061e-01	9.985794e-01	9.985509e-01	9.985201e-01	9.984869e-01	9.984509e-01	9.984118e-01	9.983694e-01	9.983233e-01	9.982733e-01	9.982190e-01	9.981599e-01	9.980958e-01	9.980267e-01	9.979521e-01	9.978714e-01	9.977834e-01	9.976864e-01	9.975785e-01	9.974580e-01	9.973232e-01	9.971713e-01	9.969969e-01	9.967906e-01	9.965348e-01	9.962048e-01	9.957634e-01	9.951657e-01	9.943644e-01	9.933151e-01	9.920110e-01	9.906053e-01	9.894988e-01	9.889944e-01	9.889090e-01	9.890995e-01	9.900328e-01	9.928303e-01	9.986190e-01	1.006765e+00	1.014981e+00	1.021811e+00	1.027446e+00	1.032493e+00	1.036774e+00	1.038417e+00	1.036152e+00	1.031579e+00	1.026392e+00	1.020592e+00	1.013566e+00	1.005246e+00	9.972057e-01	9.915924e-01	9.888615e-01	9.879206e-01	9.876893e-01	9.877754e-01	9.883707e-01	9.895059e-01	9.908335e-01	9.920011e-01	9.928656e-01	9.934329e-01	9.937069e-01	9.938872e-01	9.989489e-01	9.989648e-01	9.989552e-01	9.989530e-01	9.989460e-01	9.989394e-01	9.989345e-01	9.989310e-01	9.989284e-01	9.989260e-01	9.989230e-01	9.989184e-01	9.989130e-01	9.989072e-01	9.989015e-01	9.988956e-01	9.988905e-01	9.988862e-01	9.988835e-01	9.988805e-01	9.988721e-01	9.988584e-01	9.988407e-01	9.988197e-01	9.988012e-01	9.987820e-01	9.987642e-01	9.987476e-01	9.987323e-01	9.987175e-01	9.987026e-01	9.986866e-01	9.986687e-01	9.986487e-01	9.986258e-01	9.986008e-01	9.985738e-01	9.985448e-01	9.985137e-01	9.984802e-01	9.984438e-01	9.984042e-01	9.983611e-01	9.983142e-01	9.982633e-01	9.982083e-01	9.981486e-01	9.980840e-01	9.980140e-01	9.979383e-01	9.978562e-01	9.977670e-01	9.976692e-01	9.975607e-01	9.974393e-01	9.973026e-01	9.971472e-01	9.969674e-01	9.967520e-01	9.964837e-01	9.961332e-01	9.956645e-01	9.950336e-01	9.941908e-01	9.930893e-01	9.917494e-01	9.904008e-01	9.894670e-01	9.891215e-01	9.891036e-01	9.893613e-01	9.904276e-01	9.933536e-01	9.990797e-01	1.006969e+00	1.014977e+00	1.021759e+00	1.027420e+00	1.032420e+00	1.036528e+00	1.038065e+00	1.035919e+00	1.031518e+00	1.026359e+00	1.020537e+00	1.013566e+00	1.005467e+00	9.976916e-01	9.921375e-01	9.892669e-01	9.881796e-01	9.878712e-01	9.878663e-01	9.882780e-01	9.892605e-01	9.905476e-01	9.917499e-01	9.926652e-01	9.932733e-01	9.935695e-01	9.937672e-01	9.989474e-01	9.989588e-01	9.989499e-01	9.989474e-01	9.989400e-01	9.989344e-01	9.989307e-01	9.989283e-01	9.989254e-01	9.989228e-01	9.989189e-01	9.989148e-01	9.989101e-01	9.989047e-01	9.988994e-01	9.988940e-01	9.988886e-01	9.988840e-01	9.988795e-01	9.988741e-01	9.988657e-01	9.988518e-01	9.988338e-01	9.988165e-01	9.987973e-01	9.987795e-01	9.987622e-01	9.987454e-01	9.987294e-01	9.987137e-01	9.986981e-01	9.986817e-01	9.986637e-01	9.986434e-01	9.986205e-01	9.985952e-01	9.985677e-01	9.985382e-01	9.985065e-01	9.984723e-01	9.984354e-01	9.983952e-01	9.983515e-01	9.983040e-01	9.982523e-01	9.981965e-01	9.981361e-01	9.980708e-01	9.980000e-01	9.979232e-01	9.978397e-01	9.977489e-01	9.976496e-01	9.975396e-01	9.974165e-01	9.972771e-01	9.971175e-01	9.969308e-01	9.967050e-01	9.964198e-01	9.960466e-01	9.955475e-01	9.948769e-01	9.939804e-01	9.928178e-01	9.914575e-01	9.902118e-01	9.894832e-01	9.892797e-01	9.893176e-01	9.896643e-01	9.908900e-01	9.939569e-01	9.996006e-01	1.007202e+00	1.014986e+00	1.021722e+00	1.027394e+00	1.032315e+00	1.036185e+00	1.037609e+00	1.035606e+00	1.031432e+00	1.026337e+00	1.020498e+00	1.013575e+00	1.005714e+00	9.982347e-01	9.927595e-01	9.897404e-01	9.884757e-01	9.880741e-01	9.879863e-01	9.882252e-01	9.890151e-01	9.902251e-01	9.914522e-01	9.924250e-01	9.930827e-01	9.934061e-01	9.936234e-01	9.989438e-01	9.989521e-01	9.989433e-01	9.989407e-01	9.989342e-01	9.989293e-01	9.989269e-01	9.989252e-01	9.989227e-01	9.989191e-01	9.989151e-01	9.989107e-01	9.989067e-01	9.989025e-01	9.988975e-01	9.988914e-01	9.988853e-01	9.988795e-01	9.988738e-01	9.988667e-01	9.988570e-01	9.988435e-01	9.988272e-01	9.988096e-01	9.987924e-01	9.987760e-01	9.987594e-01	9.987426e-01	9.987263e-01	9.987098e-01	9.986936e-01	9.986765e-01	9.986582e-01	9.986378e-01	9.986147e-01	9.985892e-01	9.985612e-01	9.985310e-01	9.984983e-01	9.984631e-01	9.984252e-01	9.983843e-01	9.983400e-01	9.982920e-01	9.982397e-01	9.981832e-01	9.981221e-01	9.980561e-01	9.979846e-01	9.979069e-01	9.978223e-01	9.977301e-01	9.976287e-01	9.975163e-01	9.973902e-01	9.972470e-01	9.970820e-01	9.968869e-01	9.966482e-01	9.963441e-01	9.959441e-01	9.954089e-01	9.946889e-01	9.937265e-01	9.925002e-01	9.911485e-01	9.900588e-01	9.895545e-01	9.894620e-01	9.895517e-01	9.900107e-01	9.914229e-01	9.946396e-01	1.000188e+00	1.007481e+00	1.015023e+00	1.021694e+00	1.027351e+00	1.032150e+00	1.035752e+00	1.037015e+00	1.035212e+00	1.031302e+00	1.026307e+00	1.020467e+00	1.013609e+00	1.006005e+00	9.988398e-01	9.934574e-01	9.902832e-01	9.888165e-01	9.882892e-01	9.881369e-01	9.882250e-01	9.887908e-01	9.898744e-01	9.911077e-01	9.921419e-01	9.928586e-01	9.932149e-01	9.934541e-01	9.989371e-01	9.989445e-01	9.989355e-01	9.989336e-01	9.989281e-01	9.989242e-01	9.989224e-01	9.989215e-01	9.989192e-01	9.989157e-01	9.989113e-01	9.989073e-01	9.989030e-01	9.988990e-01	9.988943e-01	9.988886e-01	9.988818e-01	9.988751e-01	9.988680e-01	9.988600e-01	9.988488e-01	9.988353e-01	9.988194e-01	9.988035e-01	9.987874e-01	9.987719e-01	9.987556e-01	9.987394e-01	9.987220e-01	9.987049e-01	9.986880e-01	9.986704e-01	9.986516e-01	9.986312e-01	9.986080e-01	9.985824e-01	9.985541e-01	9.985231e-01	9.984893e-01	9.984529e-01	9.984138e-01	9.983718e-01	9.983266e-01	9.982778e-01	9.982250e-01	9.981678e-01	9.981061e-01	9.980393e-01	9.979671e-01	9.978886e-01	9.978032e-01	9.977095e-01	9.976061e-01	9.974906e-01	9.973607e-01	9.972128e-01	9.970412e-01	9.968364e-01	9.965824e-01	9.962557e-01	9.958239e-01	9.952447e-01	9.944636e-01	9.934239e-01	9.921387e-01	9.908414e-01	9.899662e-01	9.896692e-01	9.896598e-01	9.898069e-01	9.904046e-01	9.920299e-01	9.954003e-01	1.000847e+00	1.007821e+00	1.015095e+00	1.021667e+00	1.027274e+00	1.031902e+00	1.035190e+00	1.036300e+00	1.034707e+00	1.031102e+00	1.026251e+00	1.020440e+00	1.013681e+00	1.006357e+00	9.995139e-01	9.942292e-01	9.908979e-01	9.892032e-01	9.885222e-01	9.883067e-01	9.882804e-01	9.886120e-01	9.895099e-01	9.907144e-01	9.918096e-01	9.925959e-01	9.929926e-01	9.932571e-01	9.989289e-01	9.989357e-01	9.989268e-01	9.989260e-01	9.989214e-01	9.989184e-01	9.989169e-01	9.989165e-01	9.989147e-01	9.989119e-01	9.989080e-01	9.989037e-01	9.988999e-01	9.988952e-01	9.988903e-01	9.988844e-01	9.988774e-01	9.988698e-01	9.988609e-01	9.988507e-01	9.988389e-01	9.988263e-01	9.988124e-01	9.987975e-01	9.987824e-01	9.987673e-01	9.987511e-01	9.987335e-01	9.987160e-01	9.986984e-01	9.986808e-01	9.986628e-01	9.986438e-01	9.986227e-01	9.985996e-01	9.985740e-01	9.985455e-01	9.985139e-01	9.984794e-01	9.984420e-01	9.984018e-01	9.983586e-01	9.983123e-01	9.982625e-01	9.982088e-01	9.981509e-01	9.980885e-01	9.980209e-01	9.979477e-01	9.978682e-01	9.977814e-01	9.976860e-01	9.975800e-01	9.974612e-01	9.973270e-01	9.971736e-01	9.969943e-01	9.967779e-01	9.965059e-01	9.961525e-01	9.956829e-01	9.950503e-01	9.941944e-01	9.930681e-01	9.917415e-01	9.905651e-01	9.899601e-01	9.898315e-01	9.898615e-01	9.900906e-01	9.908556e-01	9.927138e-01	9.962382e-01	1.001583e+00	1.008233e+00	1.015207e+00	1.021634e+00	1.027147e+00	1.031574e+00	1.034508e+00	1.035452e+00	1.034083e+00	1.030818e+00	1.026145e+00	1.020413e+00	1.013803e+00	1.006787e+00	1.000263e+00	9.950750e-01	9.915875e-01	9.896455e-01	9.887761e-01	9.884727e-01	9.883792e-01	9.885079e-01	9.891590e-01	9.902721e-01	9.914170e-01	9.922836e-01	9.927314e-01	9.930275e-01	9.989207e-01	9.989262e-01	9.989180e-01	9.989182e-01	9.989147e-01	9.989122e-01	9.989108e-01	9.989108e-01	9.989094e-01	9.989073e-01	9.989042e-01	9.989002e-01	9.988958e-01	9.988910e-01	9.988855e-01	9.988793e-01	9.988725e-01	9.988639e-01	9.988539e-01	9.988425e-01	9.988297e-01	9.988176e-01	9.988052e-01	9.987918e-01	9.987776e-01	9.987626e-01	9.987453e-01	9.987275e-01	9.987088e-01	9.986908e-01	9.986732e-01	9.986539e-01	9.986341e-01	9.986127e-01	9.985893e-01	9.985634e-01	9.985346e-01	9.985028e-01	9.984679e-01	9.984300e-01	9.983891e-01	9.983449e-01	9.982975e-01	9.982466e-01	9.981920e-01	9.981335e-01	9.980704e-01	9.980020e-01	9.979276e-01	9.978464e-01	9.977574e-01	9.976591e-01	9.975498e-01	9.974271e-01	9.972882e-01	9.971284e-01	9.969401e-01	9.967096e-01	9.964162e-01	9.960313e-01	9.955164e-01	9.948186e-01	9.938728e-01	9.926523e-01	9.913285e-01	9.903681e-01	9.900325e-01	9.900065e-01	9.900732e-01	9.904138e-01	9.913745e-01	9.934796e-01	9.971545e-01	1.002397e+00	1.008721e+00	1.015362e+00	1.021595e+00	1.026954e+00	1.031125e+00	1.033694e+00	1.034470e+00	1.033328e+00	1.030419e+00	1.025973e+00	1.020388e+00	1.013989e+00	1.007305e+00	1.001091e+00	9.959943e-01	9.923551e-01	9.901530e-01	9.890618e-01	9.886365e-01	9.884995e-01	9.884922e-01	9.888605e-01	9.897955e-01	9.909526e-01	9.919052e-01	9.924185e-01	9.927562e-01	9.989122e-01	9.989170e-01	9.989098e-01	9.989109e-01	9.989079e-01	9.989058e-01	9.989045e-01	9.989048e-01	9.989041e-01	9.989021e-01	9.988999e-01	9.988957e-01	9.988913e-01	9.988860e-01	9.988795e-01	9.988732e-01	9.988655e-01	9.988565e-01	9.988453e-01	9.988326e-01	9.988191e-01	9.988077e-01	9.987970e-01	9.987853e-01	9.987725e-01	9.987567e-01	9.987390e-01	9.987209e-01	9.987026e-01	9.986830e-01	9.986640e-01	9.986445e-01	9.986241e-01	9.986020e-01	9.985777e-01	9.985511e-01	9.985217e-01	9.984896e-01	9.984544e-01	9.984162e-01	9.983747e-01	9.983298e-01	9.982815e-01	9.982298e-01	9.981746e-01	9.981154e-01	9.980517e-01	9.979826e-01	9.979070e-01	9.978239e-01	9.977319e-01	9.976297e-01	9.975157e-01	9.973883e-01	9.972443e-01	9.970774e-01	9.968781e-01	9.966304e-01	9.963112e-01	9.958886e-01	9.953186e-01	9.945401e-01	9.934855e-01	9.921763e-01	9.909502e-01	9.902960e-01	9.901620e-01	9.901768e-01	9.903109e-01	9.907886e-01	9.919705e-01	9.943295e-01	9.981495e-01	1.003288e+00	1.009287e+00	1.015568e+00	1.021539e+00	1.026690e+00	1.030545e+00	1.032742e+00	1.033354e+00	1.032434e+00	1.029882e+00	1.025725e+00	1.020359e+00	1.014237e+00	1.007915e+00	1.002001e+00	9.969886e-01	9.931996e-01	9.907341e-01	9.893990e-01	9.888134e-01	9.886093e-01	9.885405e-01	9.886662e-01	9.893240e-01	9.904144e-01	9.914432e-01	9.920363e-01	9.924285e-01	9.989050e-01	9.989086e-01	9.989014e-01	9.989037e-01	9.989013e-01	9.988995e-01	9.988984e-01	9.988988e-01	9.988984e-01	9.988967e-01	9.988938e-01	9.988903e-01	9.988853e-01	9.988798e-01	9.988733e-01	9.988647e-01	9.988579e-01	9.988487e-01	9.988357