# vtk DataFile Version 3.0
vtk output
ASCII
DATASET STRUCTURED_GRID
DIMENSIONS 101 101 1
POINTS 10201 double
0.000000e+00	0.000000e+00	0.0	1.000000e-02	0.000000e+00	0.0	2.000000e-02	0.000000e+00	0.0	3.000000e-02	0.000000e+00	0.0	4.000000e-02	0.000000e+00	0.0	5.000000e-02	0.000000e+00	0.0	6.000000e-02	0.000000e+00	0.0	7.000000e-02	0.000000e+00	0.0	8.000000e-02	0.000000e+00	0.0	9.000000e-02	0.000000e+00	0.0	1.000000e-01	0.000000e+00	0.0	1.100000e-01	0.000000e+00	0.0	1.200000e-01	0.000000e+00	0.0	1.300000e-01	0.000000e+00	0.0	1.400000e-01	0.000000e+00	0.0	1.500000e-01	0.000000e+00	0.0	1.600000e-01	0.000000e+00	0.0	1.700000e-01	0.000000e+00	0.0	1.800000e-01	0.000000e+00	0.0	1.900000e-01	0.000000e+00	0.0	2.000000e-01	0.000000e+00	0.0	2.100000e-01	0.000000e+00	0.0	2.200000e-01	0.000000e+00	0.0	2.300000e-01	0.000000e+00	0.0	2.400000e-01	0.000000e+00	0.0	2.500000e-01	0.000000e+00	0.0	2.600000e-01	0.000000e+00	0.0	2.700000e-01	0.000000e+00	0.0	2.800000e-01	0.000000e+00	0.0	2.900000e-01	0.000000e+00	0.0	3.000000e-01	0.000000e+00	0.0	3.100000e-01	0.000000e+00	0.0	3.200000e-01	0.000000e+00	0.0	3.300000e-01	0.000000e+00	0.0	3.400000e-01	0.000000e+00	0.0	3.500000e-01	0.000000e+00	0.0	3.600000e-01	0.000000e+00	0.0	3.700000e-01	0.000000e+00	0.0	3.800000e-01	0.000000e+00	0.0	3.900000e-01	0.000000e+00	0.0	4.000000e-01	0.000000e+00	0.0	4.100000e-01	0.000000e+00	0.0	4.200000e-01	0.000000e+00	0.0	4.300000e-01	0.000000e+00	0.0	4.400000e-01	0.000000e+00	0.0	4.500000e-01	0.000000e+00	0.0	4.600000e-01	0.000000e+00	0.0	4.700000e-01	0.000000e+00	0.0	4.800000e-01	0.000000e+00	0.0	4.900000e-01	0.000000e+00	0.0	5.000000e-01	0.000000e+00	0.0	5.100000e-01	0.000000e+00	0.0	5.200000e-01	0.000000e+00	0.0	5.300000e-01	0.000000e+00	0.0	5.400000e-01	0.000000e+00	0.0	5.500000e-01	0.000000e+00	0.0	5.600000e-01	0.000000e+00	0.0	5.700000e-01	0.000000e+00	0.0	5.800000e-01	0.000000e+00	0.0	5.900000e-01	0.000000e+00	0.0	6.000000e-01	0.000000e+00	0.0	6.100000e-01	0.000000e+00	0.0	6.200000e-01	0.000000e+00	0.0	6.300000e-01	0.000000e+00	0.0	6.400000e-01	0.000000e+00	0.0	6.500000e-01	0.000000e+00	0.0	6.600000e-01	0.000000e+00	0.0	6.700000e-01	0.000000e+00	0.0	6.800000e-01	0.000000e+00	0.0	6.900000e-01	0.000000e+00	0.0	7.000000e-01	0.000000e+00	0.0	7.100000e-01	0.000000e+00	0.0	7.200000e-01	0.000000e+00	0.0	7.300000e-01	0.000000e+00	0.0	7.400000e-01	0.000000e+00	0.0	7.500000e-01	0.000000e+00	0.0	7.600000e-01	0.000000e+00	0.0	7.700000e-01	0.000000e+00	0.0	7.800000e-01	0.000000e+00	0.0	7.900000e-01	0.000000e+00	0.0	8.000000e-01	0.000000e+00	0.0	8.100000e-01	0.000000e+00	0.0	8.200000e-01	0.000000e+00	0.0	8.300000e-01	0.000000e+00	0.0	8.400000e-01	0.000000e+00	0.0	8.500000e-01	0.000000e+00	0.0	8.600000e-01	0.000000e+00	0.0	8.700000e-01	0.000000e+00	0.0	8.800000e-01	0.000000e+00	0.0	8.900000e-01	0.000000e+00	0.0	9.000000e-01	0.000000e+00	0.0	9.100000e-01	0.000000e+00	0.0	9.200000e-01	0.000000e+00	0.0	9.300000e-01	0.000000e+00	0.0	9.400000e-01	0.000000e+00	0.0	9.500000e-01	0.000000e+00	0.0	9.600000e-01	0.000000e+00	0.0	9.700000e-01	0.000000e+00	0.0	9.800000e-01	0.000000e+00	0.0	9.900000e-01	0.000000e+00	0.0	1.000000e+00	0.000000e+00	0.0	0.000000e+00	1.000000e-02	0.0	1.000000e-02	1.000000e-02	0.0	2.000000e-02	1.000000e-02	0.0	3.000000e-02	1.000000e-02	0.0	4.000000e-02	1.000000e-02	0.0	5.000000e-02	1.000000e-02	0.0	6.000000e-02	1.000000e-02	0.0	7.000000e-02	1.000000e-02	0.0	8.000000e-02	1.000000e-02	0.0	9.000000e-02	1.000000e-02	0.0	1.000000e-01	1.000000e-02	0.0	1.100000e-01	1.000000e-02	0.0	1.200000e-01	1.000000e-02	0.0	1.300000e-01	1.000000e-02	0.0	1.400000e-01	1.000000e-02	0.0	1.500000e-01	1.000000e-02	0.0	1.600000e-01	1.000000e-02	0.0	1.700000e-01	1.000000e-02	0.0	1.800000e-01	1.000000e-02	0.0	1.900000e-01	1.000000e-02	0.0	2.000000e-01	1.000000e-02	0.0	2.100000e-01	1.000000e-02	0.0	2.200000e-01	1.000000e-02	0.0	2.300000e-01	1.000000e-02	0.0	2.400000e-01	1.000000e-02	0.0	2.500000e-01	1.000000e-02	0.0	2.600000e-01	1.000000e-02	0.0	2.700000e-01	1.000000e-02	0.0	2.800000e-01	1.000000e-02	0.0	2.900000e-01	1.000000e-02	0.0	3.000000e-01	1.000000e-02	0.0	3.100000e-01	1.000000e-02	0.0	3.200000e-01	1.000000e-02	0.0	3.300000e-01	1.000000e-02	0.0	3.400000e-01	1.000000e-02	0.0	3.500000e-01	1.000000e-02	0.0	3.600000e-01	1.000000e-02	0.0	3.700000e-01	1.000000e-02	0.0	3.800000e-01	1.000000e-02	0.0	3.900000e-01	1.000000e-02	0.0	4.000000e-01	1.000000e-02	0.0	4.100000e-01	1.000000e-02	0.0	4.200000e-01	1.000000e-02	0.0	4.300000e-01	1.000000e-02	0.0	4.400000e-01	1.000000e-02	0.0	4.500000e-01	1.000000e-02	0.0	4.600000e-01	1.000000e-02	0.0	4.700000e-01	1.000000e-02	0.0	4.800000e-01	1.000000e-02	0.0	4.900000e-01	1.000000e-02	0.0	5.000000e-01	1.000000e-02	0.0	5.100000e-01	1.000000e-02	0.0	5.200000e-01	1.000000e-02	0.0	5.300000e-01	1.000000e-02	0.0	5.400000e-01	1.000000e-02	0.0	5.500000e-01	1.000000e-02	0.0	5.600000e-01	1.000000e-02	0.0	5.700000e-01	1.000000e-02	0.0	5.800000e-01	1.000000e-02	0.0	5.900000e-01	1.000000e-02	0.0	6.000000e-01	1.000000e-02	0.0	6.100000e-01	1.000000e-02	0.0	6.200000e-01	1.000000e-02	0.0	6.300000e-01	1.000000e-02	0.0	6.400000e-01	1.000000e-02	0.0	6.500000e-01	1.000000e-02	0.0	6.600000e-01	1.000000e-02	0.0	6.700000e-01	1.000000e-02	0.0	6.800000e-01	1.000000e-02	0.0	6.900000e-01	1.000000e-02	0.0	7.000000e-01	1.000000e-02	0.0	7.100000e-01	1.000000e-02	0.0	7.200000e-01	1.000000e-02	0.0	7.300000e-01	1.000000e-02	0.0	7.400000e-01	1.000000e-02	0.0	7.500000e-01	1.000000e-02	0.0	7.600000e-01	1.000000e-02	0.0	7.700000e-01	1.000000e-02	0.0	7.800000e-01	1.000000e-02	0.0	7.900000e-01	1.000000e-02	0.0	8.000000e-01	1.000000e-02	0.0	8.100000e-01	1.000000e-02	0.0	8.200000e-01	1.000000e-02	0.0	8.300000e-01	1.000000e-02	0.0	8.400000e-01	1.000000e-02	0.0	8.500000e-01	1.000000e-02	0.0	8.600000e-01	1.000000e-02	0.0	8.700000e-01	1.000000e-02	0.0	8.800000e-01	1.000000e-02	0.0	8.900000e-01	1.000000e-02	0.0	9.000000e-01	1.000000e-02	0.0	9.100000e-01	1.000000e-02	0.0	9.200000e-01	1.000000e-02	0.0	9.300000e-01	1.000000e-02	0.0	9.400000e-01	1.000000e-02	0.0	9.500000e-01	1.000000e-02	0.0	9.600000e-01	1.000000e-02	0.0	9.700000e-01	1.000000e-02	0.0	9.800000e-01	1.000000e-02	0.0	9.900000e-01	1.000000e-02	0.0	1.000000e+00	1.000000e-02	0.0	0.000000e+00	2.000000e-02	0.0	1.000000e-02	2.000000e-02	0.0	2.000000e-02	2.000000e-02	0.0	3.000000e-02	2.000000e-02	0.0	4.000000e-02	2.000000e-02	0.0	5.000000e-02	2.000000e-02	0.0	6.000000e-02	2.000000e-02	0.0	7.000000e-02	2.000000e-02	0.0	8.000000e-02	2.000000e-02	0.0	9.000000e-02	2.000000e-02	0.0	1.000000e-01	2.000000e-02	0.0	1.100000e-01	2.000000e-02	0.0	1.200000e-01	2.000000e-02	0.0	1.300000e-01	2.000000e-02	0.0	1.400000e-01	2.000000e-02	0.0	1.500000e-01	2.000000e-02	0.0	1.600000e-01	2.000000e-02	0.0	1.700000e-01	2.000000e-02	0.0	1.800000e-01	2.000000e-02	0.0	1.900000e-01	2.000000e-02	0.0	2.000000e-01	2.000000e-02	0.0	2.100000e-01	2.000000e-02	0.0	2.200000e-01	2.000000e-02	0.0	2.300000e-01	2.000000e-02	0.0	2.400000e-01	2.000000e-02	0.0	2.500000e-01	2.000000e-02	0.0	2.600000e-01	2.000000e-02	0.0	2.700000e-01	2.000000e-02	0.0	2.800000e-01	2.000000e-02	0.0	2.900000e-01	2.000000e-02	0.0	3.000000e-01	2.000000e-02	0.0	3.100000e-01	2.000000e-02	0.0	3.200000e-01	2.000000e-02	0.0	3.300000e-01	2.000000e-02	0.0	3.400000e-01	2.000000e-02	0.0	3.500000e-01	2.000000e-02	0.0	3.600000e-01	2.000000e-02	0.0	3.700000e-01	2.000000e-02	0.0	3.800000e-01	2.000000e-02	0.0	3.900000e-01	2.000000e-02	0.0	4.000000e-01	2.000000e-02	0.0	4.100000e-01	2.000000e-02	0.0	4.200000e-01	2.000000e-02	0.0	4.300000e-01	2.000000e-02	0.0	4.400000e-01	2.000000e-02	0.0	4.500000e-01	2.000000e-02	0.0	4.600000e-01	2.000000e-02	0.0	4.700000e-01	2.000000e-02	0.0	4.800000e-01	2.000000e-02	0.0	4.900000e-01	2.000000e-02	0.0	5.000000e-01	2.000000e-02	0.0	5.100000e-01	2.000000e-02	0.0	5.200000e-01	2.000000e-02	0.0	5.300000e-01	2.000000e-02	0.0	5.400000e-01	2.000000e-02	0.0	5.500000e-01	2.000000e-02	0.0	5.600000e-01	2.000000e-02	0.0	5.700000e-01	2.000000e-02	0.0	5.800000e-01	2.000000e-02	0.0	5.900000e-01	2.000000e-02	0.0	6.000000e-01	2.000000e-02	0.0	6.100000e-01	2.000000e-02	0.0	6.200000e-01	2.000000e-02	0.0	6.300000e-01	2.000000e-02	0.0	6.400000e-01	2.000000e-02	0.0	6.500000e-01	2.000000e-02	0.0	6.600000e-01	2.000000e-02	0.0	6.700000e-01	2.000000e-02	0.0	6.800000e-01	2.000000e-02	0.0	6.900000e-01	2.000000e-02	0.0	7.000000e-01	2.000000e-02	0.0	7.100000e-01	2.000000e-02	0.0	7.200000e-01	2.000000e-02	0.0	7.300000e-01	2.000000e-02	0.0	7.400000e-01	2.000000e-02	0.0	7.500000e-01	2.000000e-02	0.0	7.600000e-01	2.000000e-02	0.0	7.700000e-01	2.000000e-02	0.0	7.800000e-01	2.000000e-02	0.0	7.900000e-01	2.000000e-02	0.0	8.000000e-01	2.000000e-02	0.0	8.100000e-01	2.000000e-02	0.0	8.200000e-01	2.000000e-02	0.0	8.300000e-01	2.000000e-02	0.0	8.400000e-01	2.000000e-02	0.0	8.500000e-01	2.000000e-02	0.0	8.600000e-01	2.000000e-02	0.0	8.700000e-01	2.000000e-02	0.0	8.800000e-01	2.000000e-02	0.0	8.900000e-01	2.000000e-02	0.0	9.000000e-01	2.000000e-02	0.0	9.100000e-01	2.000000e-02	0.0	9.200000e-01	2.000000e-02	0.0	9.300000e-01	2.000000e-02	0.0	9.400000e-01	2.000000e-02	0.0	9.500000e-01	2.000000e-02	0.0	9.600000e-01	2.000000e-02	0.0	9.700000e-01	2.000000e-02	0.0	9.800000e-01	2.000000e-02	0.0	9.900000e-01	2.000000e-02	0.0	1.000000e+00	2.000000e-02	0.0	0.000000e+00	3.000000e-02	0.0	1.000000e-02	3.000000e-02	0.0	2.000000e-02	3.000000e-02	0.0	3.000000e-02	3.000000e-02	0.0	4.000000e-02	3.000000e-02	0.0	5.000000e-02	3.000000e-02	0.0	6.000000e-02	3.000000e-02	0.0	7.000000e-02	3.000000e-02	0.0	8.000000e-02	3.000000e-02	0.0	9.000000e-02	3.000000e-02	0.0	1.000000e-01	3.000000e-02	0.0	1.100000e-01	3.000000e-02	0.0	1.200000e-01	3.000000e-02	0.0	1.300000e-01	3.000000e-02	0.0	1.400000e-01	3.000000e-02	0.0	1.500000e-01	3.000000e-02	0.0	1.600000e-01	3.000000e-02	0.0	1.700000e-01	3.000000e-02	0.0	1.800000e-01	3.000000e-02	0.0	1.900000e-01	3.000000e-02	0.0	2.000000e-01	3.000000e-02	0.0	2.100000e-01	3.000000e-02	0.0	2.200000e-01	3.000000e-02	0.0	2.300000e-01	3.000000e-02	0.0	2.400000e-01	3.000000e-02	0.0	2.500000e-01	3.000000e-02	0.0	2.600000e-01	3.000000
[...]
POINT_DATA 10201

SCALARS Height double 1
LOOKUP_TABLE default
1.071664e+00	1.074863e+00	1.065607e+00	1.059088e+00	1.051581e+00	1.040714e+00	1.024056e+00	1.003665e+00	9.856329e-01	9.746288e-01	9.699066e-01	9.685899e-01	9.687068e-01	9.692489e-01	9.698711e-01	9.704705e-01	9.710287e-01	9.715415e-01	9.719727e-01	9.722617e-01	9.723581e-01	9.722616e-01	9.719750e-01	9.715493e-01	9.710409e-01	9.704789e-01	9.698693e-01	9.692450e-01	9.686803e-01	9.682802e-01	9.681903e-01	9.685874e-01	9.696000e-01	9.717091e-01	9.752113e-01	9.803876e-01	9.873823e-01	9.964005e-01	1.007861e+00	1.021934e+00	1.037438e+00	1.051162e+00	1.060193e+00	1.064673e+00	1.065520e+00	1.062559e+00	1.051953e+00	1.033388e+00	1.015113e+00	1.004933e+00	1.001403e+00	1.000435e+00	1.000155e+00	1.000056e+00	1.000018e+00	1.000005e+00	1.000001e+00	1.000000e+00	1.000000e+00	1.000000e+00	1.000000e+00	1.000000e+00	1.000000e+00	1.000000e+00	1.000000e+00	1.000000e+00	1.000000e+00	1.000000e+00	1.000000e+00	1.000000e+00	1.000000e+00	1.000000e+00	1.000000e+00	1.000000e+00	1.000000e+00	1.000000e+00	1.000000e+00	1.000000e+00	1.000000e+00	1.000000e+00	1.000000e+00	1.000000e+00	1.000000e+00	1.000000e+00	1.000000e+00	1.000000e+00	1.000000e+00	1.000000e+00	1.000000e+00	1.000000e+00	1.000000e+00	1.000000e+00	1.000000e+00	1.000000e+00	1.000000e+00	1.000000e+00	1.000000e+00	1.000000e+00	1.000000e+00	1.000000e+00	1.000000e+00	1.074863e+00	1.078576e+00	1.069198e+00	1.061802e+00	1.053372e+00	1.041795e+00	1.024785e+00	1.004823e+00	9.868871e-01	9.756258e-01	9.708381e-01	9.693142e-01	9.692651e-01	9.697376e-01	9.703449e-01	9.709397e-01	9.714732e-01	9.719471e-01	9.723325e-01	9.725808e-01	9.726635e-01	9.725809e-01	9.723352e-01	9.719552e-01	9.714846e-01	9.709468e-01	9.703462e-01	9.697473e-01	9.692697e-01	9.690806e-01	9.693206e-01	9.700042e-01	9.715120e-01	9.741361e-01	9.779949e-01	9.833676e-01	9.905797e-01	9.998078e-01	1.011232e+00	1.024681e+00	1.039039e+00	1.051749e+00	1.060168e+00	1.063865e+00	1.064044e+00	1.060368e+00	1.049172e+00	1.031829e+00	1.014899e+00	1.004871e+00	1.001273e+00	1.000367e+00	1.000130e+00	1.000048e+00	1.000016e+00	1.000004e+00	1.000001e+00	1.000000e+00	1.000000e+00	1.000000e+00	1.000000e+00	1.000000e+00	1.000000e+00	1.000000e+00	1.000000e+00	1.000000e+00	1.000000e+00	1.000000e+00	1.000000e+00	1.000000e+00	1.000000e+00	1.000000e+00	1.000000e+00	1.000000e+00	1.000000e+00	1.000000e+00	1.000000e+00	1.000000e+00	1.000000e+00	1.000000e+00	1.000000e+00	1.000000e+00	1.000000e+00	1.000000e+00	1.000000e+00	1.000000e+00	1.000000e+00	1.000000e+00	1.000000e+00	1.000000e+00	1.000000e+00	1.000000e+00	1.000000e+00	1.000000e+00	1.000000e+00	1.000000e+00	1.000000e+00	1.000000e+00	1.000000e+00	1.000000e+00	1.000000e+00	1.065607e+00	1.069198e+00	1.063887e+00	1.058462e+00	1.050500e+00	1.039524e+00	1.025244e+00	1.010031e+00	9.951630e-01	9.824636e-01	9.749859e-01	9.721877e-01	9.717805e-01	9.723274e-01	9.730899e-01	9.737758e-01	9.743491e-01	9.748203e-01	9.751821e-01	9.754133e-01	9.754928e-01	9.754154e-01	9.751875e-01	9.748282e-01	9.743562e-01	9.737838e-01	9.731106e-01	9.723574e-01	9.716971e-01	9.714101e-01	9.717501e-01	9.727544e-01	9.748680e-01	9.779557e-01	9.819882e-01	9.871466e-01	9.938081e-01	1.002313e+00	1.012289e+00	1.022849e+00	1.033221e+00	1.043630e+00	1.053216e+00	1.058114e+00	1.058435e+00	1.054509e+00	1.044324e+00	1.033068e+00	1.021940e+00	1.010524e+00	1.003211e+00	1.000772e+00	1.000216e+00	1.000075e+00	1.000027e+00	1.000008e+00	1.000002e+00	1.000000e+00	1.000000e+00	1.000000e+00	1.000000e+00	1.000000e+00	1.000000e+00	1.000000e+00	1.000000e+00	1.000000e+00	1.000000e+00	1.000000e+00	1.000000e+00	1.000000e+00	1.000000e+00	1.000000e+00	1.000000e+00	1.000000e+00	1.000000e+00	1.000000e+00	1.000000e+00	1.000000e+00	1.000000e+00	1.000000e+00	1.000000e+00	1.000000e+00	1.000000e+00	1.000000e+00	1.000000e+00	1.000000e+00	1.000000e+00	1.000000e+00	1.000000e+00	1.000000e+00	1.000000e+00	1.000000e+00	1.000000e+00	1.000000e+00	1.000000e+00	1.000000e+00	1.000000e+00	1.000000e+00	1.000000e+00	1.000000e+00	1.000000e+00	1.059088e+00	1.061802e+00	1.058462e+00	1.055012e+00	1.048488e+00	1.038469e+00	1.026487e+00	1.015938e+00	1.006015e+00	9.948511e-01	9.847548e-01	9.793681e-01	9.775374e-01	9.772050e-01	9.773145e-01	9.775010e-01	9.776539e-01	9.777778e-01	9.778958e-01	9.779952e-01	9.780318e-01	9.779991e-01	9.779018e-01	9.777831e-01	9.776625e-01	9.775271e-01	9.773564e-01	9.771791e-01	9.770928e-01	9.772123e-01	9.776474e-01	9.787533e-01	9.809516e-01	9.842712e-01	9.886999e-01	9.941861e-01	1.000627e+00	1.007876e+00	1.015362e+00	1.022394e+00	1.029275e+00	1.037199e+00	1.044983e+00	1.049371e+00	1.049137e+00	1.044815e+00	1.037490e+00	1.031796e+00	1.026383e+00	1.017494e+00	1.007355e+00	1.001912e+00	1.000436e+00	1.000125e+00	1.000044e+00	1.000015e+00	1.000004e+00	1.000001e+00	1.000000e+00	1.000000e+00	1.000000e+00	1.000000e+00	1.000000e+00	1.000000e+00	1.000000e+00	1.000000e+00	1.000000e+00	1.000000e+00	1.000000e+00	1.000000e+00	1.000000e+00	1.000000e+00	1.000000e+00	1.000000e+00	1.000000e+00	1.000000e+00	1.000000e+00	1.000000e+00	1.000000e+00	1.000000e+00	1.000000e+00	1.000000e+00	1.000000e+00	1.000000e+00	1.000000e+00	1.000000e+00	1.000000e+00	1.000000e+00	1.000000e+00	1.000000e+00	1.000000e+00	1.000000e+00	1.000000e+00	1.000000e+00	1.000000e+00	1.000000e+00	1.000000e+00	1.000000e+00	1.000000e+00	1.000000e+00	1.000000e+00	1.051581e+00	1.053372e+00	1.050500e+00	1.048488e+00	1.043963e+00	1.037711e+00	1.030278e+00	1.023948e+00	1.018061e+00	1.009818e+00	9.987201e-01	9.897418e-01	9.853843e-01	9.835658e-01	9.826977e-01	9.821927e-01	9.818501e-01	9.816040e-01	9.814669e-01	9.814249e-01	9.814216e-01	9.814287e-01	9.814721e-01	9.816128e-01	9.818775e-01	9.822408e-01	9.827027e-01	9.833110e-01	9.841270e-01	9.851396e-01	9.863387e-01	9.877975e-01	9.897934e-01	9.928114e-01	9.970343e-01	1.002109e+00	1.007353e+00	1.012051e+00	1.016171e+00	1.020298e+00	1.025257e+00	1.030078e+00	1.034105e+00	1.036838e+00	1.037001e+00	1.035371e+00	1.032909e+00	1.031134e+00	1.028907e+00	1.023496e+00	1.013463e+00	1.004602e+00	1.001063e+00	1.000249e+00	1.000075e+00	1.000026e+00	1.000008e+00	1.000002e+00	1.000001e+00	1.000000e+00	1.000000e+00	1.000000e+00	1.000000e+00	1.000000e+00	1.000000e+00	1.000000e+00	1.000000e+00	1.000000e+00	1.000000e+00	1.000000e+00	1.000000e+00	1.000000e+00	1.000000e+00	1.000000e+00	1.000000e+00	1.000000e+00	1.000000e+00	1.000000e+00	1.000000e+00	1.000000e+00	1.000000e+00	1.000000e+00	1.000000e+00	1.000000e+00	1.000000e+00	1.000000e+00	1.000000e+00	1.000000e+00	1.000000e+00	1.000000e+00	1.000000e+00	1.000000e+00	1.000000e+00	1.000000e+00	1.000000e+00	1.000000e+00	1.000000e+00	1.000000e+00	1.000000e+00	1.000000e+00	1.000000e+00	1.040714e+00	1.041795e+00	1.039524e+00	1.038469e+00	1.037711e+00	1.037763e+00	1.035837e+00	1.033363e+00	1.030368e+00	1.024817e+00	1.014662e+00	1.002874e+00	9.952223e-01	9.915862e-01	9.896748e-01	9.884600e-01	9.876178e-01	9.870328e-01	9.866519e-01	9.864190e-01	9.863594e-01	9.864213e-01	9.866586e-01	9.870583e-01	9.876714e-01	9.884955e-01	9.895393e-01	9.908538e-01	9.924692e-01	9.943618e-01	9.964278e-01	9.984825e-01	1.000499e+00	1.002774e+00	1.005689e+00	1.008965e+00	1.011789e+00	1.013826e+00	1.015611e+00	1.018037e+00	1.020221e+00	1.021251e+00	1.021431e+00	1.021872e+00	1.024345e+00	1.028358e+00	1.030216e+00	1.030372e+00	1.029826e+00	1.027151e+00	1.019510e+00	1.009082e+00	1.002559e+00	1.000558e+00	1.000139e+00	1.000044e+00	1.000015e+00	1.000004e+00	1.000001e+00	1.000000e+00	1.000000e+00	1.000000e+00	1.000000e+00	1.000000e+00	1.000000e+00	1.000000e+00	1.000000e+00	1.000000e+00	1.000000e+00	1.000000e+00	1.000000e+00	1.000000e+00	1.000000e+00	1.000000e+00	1.000000e+00	1.000000e+00	1.000000e+00	1.000000e+00	1.000000e+00	1.000000e+00	1.000000e+00	1.000000e+00	1.000000e+00	1.000000e+00	1.000000e+00	1.000000e+00	1.000000e+00	1.000000e+00	1.000000e+00	1.000000e+00	1.000000e+00	1.000000e+00	1.000000e+00	1.000000e+00	1.000000e+00	1.000000e+00	1.000000e+00	1.000000e+00	1.000000e+00	1.000000e+00	1.000000e+00	1.024056e+00	1.024785e+00	1.025244e+00	1.026487e+00	1.030278e+00	1.035837e+00	1.040875e+00	1.042400e+00	1.040959e+00	1.037417e+00	1.029623e+00	1.017546e+00	1.006906e+00	1.001134e+00	9.981985e-01	9.963701e-01	9.950995e-01	9.942130e-01	9.936199e-01	9.932739e-01	9.931630e-01	9.932756e-01	9.936365e-01	9.942664e-01	9.951648e-01	9.963242e-01	9.977765e-01	9.995571e-01	1.001665e+00	1.004053e+00	1.006607e+00	1.009087e+00	1.011036e+00	1.012119e+00	1.012643e+00	1.013008e+00	1.013382e+00	1.014010e+00	1.014584e+00	1.014264e+00	1.012410e+00	1.009868e+00	1.008409e+00	1.009025e+00	1.014523e+00	1.022705e+00	1.028121e+00	1.029698e+00	1.029875e+00	1.028667e+00	1.023935e+00	1.014450e+00	1.005356e+00	1.001287e+00	1.000280e+00	1.000075e+00	1.000024e+00	1.000008e+00	1.000002e+00	1.000001e+00	1.000000e+00	1.000000e+00	1.000000e+00	1.000000e+00	1.000000e+00	1.000000e+00	1.000000e+00	1.000000e+00	1.000000e+00	1.000000e+00	1.000000e+00	1.000000e+00	1.000000e+00	1.000000e+00	1.000000e+00	1.000000e+00	1.000000e+00	1.000000e+00	1.000000e+00	1.000000e+00	1.000000e+00	1.000000e+00	1.000000e+00	1.000000e+00	1.000000e+00	1.000000e+00	1.000000e+00	1.000000e+00	1.000000e+00	1.000000e+00	1.000000e+00	1.000000e+00	1.000000e+00	1.000000e+00	1.000000e+00	1.000000e+00	1.000000e+00	1.000000e+00	1.000000e+00	1.000000e+00	1.000000e+00	1.003665e+00	1.004823e+00	1.010031e+00	1.015938e+00	1.023948e+00	1.033363e+00	1.042400e+00	1.047648e+00	1.048105e+00	1.046228e+00	1.041124e+00	1.031487e+00	1.019714e+00	1.011762e+00	1.007756e+00	1.005438e+00	1.003867e+00	1.002793e+00	1.002070e+00	1.001671e+00	1.001552e+00	1.001679e+00	1.002106e+00	1.002869e+00	1.003906e+00	1.005233e+00	1.006866e+00	1.008785e+00	1.010932e+00	1.013212e+00	1.015458e+00	1.017313e+00	1.018387e+00	1.018389e+00	1.017120e+00	1.015139e+00	1.014032e+00	1.013277e+00	1.011380e+00	1.007149e+00	1.001838e+00	9.983870e-01	9.976155e-01	1.000498e+00	1.008265e+00	1.017685e+00	1.025271e+00	1.028748e+00	1.029370e+00	1.029060e+00	1.026527e+00	1.019304e+00	1.009320e+00	1.002746e+00	1.000595e+00	1.000136e+00	1.000039e+00	1.000012e+00	1.000004e+00	1.000001e+00	1.000000e+00	1.000000e+00	1.000000e+00	1.000000e+00	1.000000e+00	1.000000e+00	1.000000e+00	1.000000e+00	1.000000e+00	1.000000e+00	1.000000e+00	1.000000e+00	1.000000e+00	1.000000e+00	1.000000e+00	1.000000e+00	1.000000e+00	1.000000e+00	1.000000e+00	1.000000e+00	1.000000e+00	1.000000e+00	1.000000e+00	1.000000e+00	1.000000e+00	1.000000e+00	1.000000e+00	1.000000e+00	1.000000e+00	1.000000e+00	1.000000e+00	1.000000e+00	1.000000e+00	1.000000e+00	1.000000e+00	1.000000e+00	1.000000e+00	1.000000e+00	1.000000e+00	1.000000e+00	1.000000e+00	9.856329e-01	9.868871e-01	9.951630e-01	1.006015e+00	1.018061e+00	1.030368e+00	1.040959e+00	1.048105e+00	1.050650e+00	1.050472e+00	1.048149e+00	1.041551e+00	1.031159e+00	1.021833e+00	1.016895e+00	1.014383e+00	1.012790e+00	1.011704e+00	1.011023e+00	1.010615e+00	1.010500e+00	1.010647e+00	1.011081e+00	1.011769e+00	1.012736e+00	1.013942e+00	1.015327e+00	1.016810e+00	1.018286e+00	1.019626e+00	1.020672e+00	1.021259e+00	1.021276e+00	1.020831e+00	1.019449e+00	1.016892e+00	1.013568e+00	1.009422e+00	1.003755e+00	9.971907e-01	9.921890e-01	9.903335e-01	9.909608e-01	9.957911e-01	1.003788e+00	1.013031e+00	1.021769e+00	1.027180e+00	1.028729e+00	1.028898e+00	1.027628e+00	1.022849e+00	1.013678e+00	1.005102e+00	1.001236e+00	1.000260e+00	1.000064e+00	1.000019e+00	1.000006e+00	1.000002e+00	1.000000e+00	1.000000e+00	1.000000e+00	1.000000e+00	1.000000e+00	1.000000e+00	1.000000e+00	1.000000e+00	1.000000e+00	1.000000e+00	1.000000e+00	1.000000e+00	1.000000e+00	1.000000e+00	1.000000e+00	1.000000e+00	1.000000e+00	1.000000e+00	1.000000e+00	1.000000e+00	1.000000e+00	1.000000e+00	1.000000e+00	1.000000e+00	1.000000e+00	1.000000e+00	1.000000e+00	1.000000e+00	1.000000e+00	1.000000e+00	1.000000e+00	1.000000e+00	1.000000e+00	1.000000e+00	1.000000e+00	1.000000e+00	1.000000e+00	1.000000e+00	1.000000e+00	1.000000e+00	1.000000e+00	9.746288e-01	9.756258e-01	9.824636e-01	9.948511e-01	1.009818e+00	1.024817e+00	1.037417e+00	1.046228e+00	1.050472e+00	1.050945e+00	1.050290e+00	1.046927e+00	1.038788e+00	1.029055e+00	1.023113e+00	1.020670e+00	1.019430e+00	1.018622e+00	1.018083e+00	1.017855e+00	1.017822e+00	1.017908e+00	1.018176e+00	1.018624e+00	1.019219e+00	1.019889e+00	1.020553e+00	1.021148e+00	1.021646e+00	1.021994e+00	1.022207e+00	1.022261e+00	1.022106e+00	1.021552e+00	1.019883e+00	1.015996e+00	1.009320e+00	1.001262e+00	9.940942e-01	9.891303e-01	9.866992e-01	9.861897e-01	9.878909e-01	9.928457e-01	1.000077e+00	1.008767e+00	1.017928e+00	1.024998e+00	1.027951e+00	1.028416e+00	1.028008e+00	1.025056e+00	1.017586e+00	1.008166e+00	1.002355e+00	1.000503e+00	1.000110e+00	1.000030e+00	1.000009e+00	1.000003e+00	1.000001e+00	1.000000e+00	1.000000e+00	1.000000e+00	1.000000e+00	1.000000e+00	1.000000e+00	1.000000e+00	1.000000e+00	1.000000e+00	1.000000e+00	1.000000e+00	1.000000e+00	1.000000e+00	1.000000e+00	1.000000e+00	1.000000e+00	1.000000e+00	1.000000e+00	1.000000e+00	1.000000e+00	1.000000e+00	1.000000e+00	1.000000e+00	1.000000e+00	1.000000e+00	1.000000e+00	1.000000e+00	1.000000e+00	1.000000e+00	1.000000e+00	1.000000e+00	1.000000e+00	1.000000e+00	1.000000e+00	1.000000e+00	1.000000e+00	1.000000e+00	1.000000e+00	1.000000e+00	1.000000e+00	9.699066e-01	9.708381e-01	9.749859e-01	9.847548e-01	9.987201e-01	1.014662e+00	1.029623e+00	1.041124e+00	1.048149e+00	1.050290e+00	1.050060e+00	1.048258e+00	1.042835e+00	1.033614e+00	1.026214e+00	1.023200e+00	1.022163e+00	1.021634e+00	1.021286e+00	1.021209e+00	1.021238e+00	1.021276e+00	1.021386e+00	1.021557e+00	1.021744e+00	1.021918e+00	1.022072e+00	1.022228e+00	1.022387e+00	1.022539e+00	1.022512e+00	1.022201e+00	1.021405e+00	1.019549e+00	1.015859e+00	1.009612e+00	1.001243e+00	9.930810e-01	9.876984e-01	9.852966e-01	9.845992e-01	9.847186e-01	9.864863e-01	9.906230e-01	9.968879e-01	1.004969e+00	1.014156e+00	1.022390e+00	1.026874e+00	1.027921e+00	1.027946e+00	1.026195e+00	1.020608e+00	1.011466e+00	1.004000e+00	1.000935e+00	1.000193e+00	1.000046e+00	1.000013e+00	1.000004e+00	1.000001e+00	1.000000e+00	1.000000e+00	1.000000e+00	1.000000e+00	1.000000e+00	1.000000e+00	1.000000e+00	1.000000e+00	1.000000e+00	1.000000e+00	1.000000e+00	1.000000e+00	1.000000e+00	1.000000e+00	1.000000e+00	1.000000e+00	1.000000e+00	1.000000e+00	1.000000e+00	1.000000e+00	1.000000e+00	1.000000e+00	1.000000e+00	1.000000e+00	1.000000e+00	1.000000e+00	1.000000e+00	1.000000e+00	1.000000e+00	1.000000e+00	1.000000e+00	1.000000e+00	1.000000e+00	1.000000e+00	1.000000e+00	1.000000e+00	1.000000e+00	1.000000e+00	1.000000e+00	1.000000e+00	9.685899e-01	9.693142e-01	9.721877e-01	9.793681e-01	9.897418e-01	1.002874e+00	1.017546e+00	1.031487e+00	1.041551e+00	1.046927e+00	1.048258e+00	1.047757e+00	1.044200e+00	1.036379e+00	1.028119e+00	1.024100e+00	1.022847e+00	1.022321e+00	1.022015e+00	1.021958e+00	1.022004e+00	1.022029e+00	1.022085e+00	1.022158e+00	1.022242e+00	1.022297e+00	1.022329e+00	1.022325e+00	1.022198e+00	1.021801e+00	1.021004e+00	1.019444e+00	1.016788e+00	1.012680e+00	1.007114e+00	1.000738e+00	9.945572e-01	9.893798e-01	9.859486e-01	9.844934e-01	9.841667e-01	9.843624e-01	9.856827e-01	9.888695e-01	9.942291e-01	1.001696e+00	1.010688e+00	1.019583e+00	1.025495e+00	1.027395e+00	1.027636e+00	1.026720e+00	1.022695e+00	1.014537e+00	1.006050e+00	1.001611e+00	1.000334e+00	1.000072e+00	1.000019e+00	1.000006e+00	1.000002e+00	1.000000e+00	1.000000e+00	1.000000e+00	1.000000e+00	1.000000e+00	1.000000e+00	1.000000e+00	1.000000e+00	1.000000e+00	1.000000e+00	1.000000e+00	1.000000e+00	1.000000e+00	1.000000e+00	1.000000e+00	1.000000e+00	1.000000e+00	1.000000e+00	1.000000e+00	1.000000e+00	1.000000e+00	1.000000e+00	1.000000e+00	1.000000e+00	1.000000e+00	1.000000e+00	1.000000e+00	1.000000e+00	1.000000e+00	1.000000e+00	1.000000e+00	1.000000e+00	1.000000e+00	1.000000e+00	1.000000e+00	1.000000e+00	1.000000e+00	1.000000e+00	1.000000e+00	1.000000e+00	9.687068e-01	9.692651e-01	9.717805e-01	9.775374e-01	9.853843e-01	9.952223e-01	1.006906e+00	1.019714e+00	1.031159e+00	1.038788e+00	1.042835e+00	1.044200e+00	1.042920e+00	1.037127e+00	1.029029e+00	1.023989e+00	1.022498e+00	1.022080e+00	1.021839e+00	1.021819e+00	1.021870e+00	1.021879e+00	1.021871e+00	1.021811e+00	1.021659e+00	1.021406e+00	1.021023e+00	1.020438e+00	1.019434e+00	1.017872e+00	1.015512e+00	1.012224e+00	1.008045e+00	1.003396e+00	9.989934e-01	9.952985e-01	9.921432e-01	9.890752e-01	9.862618e-01	9.846893e-01	9.843400e-01	9.843911e-01	9.852296e-01	9.875709e-01	9.921224e-01	9.989606e-01	1.007615e+00	1.016805e+00	1.023867e+00	1.026792e+00	1.027260e+00	1.026908e+00	1.024038e+00	1.017105e+00	1.008273e+00	1.002534e+00	1.000554e+00	1.000113e+00	1.000027e+00	1.000008e+00	1.000002e+00	1.000001e+00	1.000000e+00	1.000000e+00	1.000000e+00	1.000000e+00	1.000000e+00	1.000000e+00	1.000000e+00	1.000000e+00	1.000000e+00	1.000000e+00	1.000000e+00	1.000000e+00	1.000000e+00	1.000000e+00	1.000000e+00	1.000000e+00	1.000000e+00	1.000000e+00	1.000000e+00	1.000000e+00	1.000000e+00	1.000000e+00	1.000000e+00	1.000000e+00	1.000000e+00	1.000000e+00	1.000000e+00	1.000000e+00	1.000000e+00	1.000000e+00	1.000000e+00	1.000000e+00	1.000000e+00	1.000000e+00	1.000000e+00	1.000000e+00	1.000000e+00	1.000000e+00	1.000000e+00	9.692489e-01	9.697376e-01	9.723274e-01	9.772050e-01	9.835658e-01	9.915862e-01	1.001134e+00	1.011762e+00	1.021833e+00	1.029055e+00	1.033614e+00	1.036379e+00	1.037127e+00	1.033590e+00	1.026539e+00	1.021070e+00	1.019366e+00	1.019207e+00	1.019244e+00	1.019391e+00	1.019469e+00	1.019427e+00	1.019229e+00	1.018838e+00	1.018280e+00	1.017462e+00	1.016335e+00	1.014774e+00	1.012677e+00	1.009989e+00	1.006800e+00	1.003379e+00	1.000153e+00	9.974913e-01	9.954592e-01	9.937968e-01	9.920608e-01	9.898335e-01	9.871886e-01	9.852031e-01	9.845763e-01	9.845282e-01	9.849668e-01	9.866944e-01	9.905339e-01	9.967323e-01	1.004973e+00	1.014219e+00	1.022118e+00	1.026085e+00	1.026916e+00	1.026837e+00	1.024836e+00	1.019084e+00	1.010430e+00	1.003645e+00	1.000863e+00	1.000174e+00	1.000038e+00	1.000010e+00	1.000003e+00	1.000001e+00	1.000000e+00	1.000000e+00	1.000000e+00	1.000000e+00	1.000000e+00	1.000000e+00	1.000000e+00	1.000000e+00	1.000000e+00	1.000000e+00	1.000000e+00	1.000000e+00	1.000000e+00	1.000000e+00	1.000000e+00	1.000000e+00	1.000000e+00	1.000000e+00	1.000000e+00	1.000000e+00	1.000000e+00	1.000000e+00	1.000000e+00	1.000000e+00	1.000000e+00	1.000000e+00	1.000000e+00	1.000000e+00	1.000000e+00	1.000000e+00	1.000000e+00	1.000000e+00	1.000000e+00	1.000000e+00	1.000000e+00	1.000000e+00	1.000000e+00	1.000000e+00	1.000000e+00	9.698711e-01	9.703449e-01	9.730899e-01	9.773145e-01	9.826977e-01	9.896748e-01	9.981985e-01	1.007756e+00	1.016895e+00	1.023113e+00	1.026214e+00	1.028119e+00	1.029029e+00	1.026539e+00	1.020465e+00	1.014847e+00	1.012708e+00	1.012722e+00	1.013032e+00	1.013331e+00	1.013509e+00	1.013343e+00	1.012953e+00	1.012293e+00	1.011336e+00	1.010065e+00	1.008451e+00	1.006508e+00	1.004314e+00	1.002035e+00	9.998881e-01	9.980658e-01	9.966465e-01	9.955661e-01	9.946569e-01	9.936994e-01	9.924278e-01	9.905603e-01	9.880832e-01	9.858161e-01	9.848131e-01	9.846675e-01	9.848696e-01	9.861775e-01	9.893781e-01	9.949638e-01	1.002762e+00	1.011922e+00	1.020377e+00	1.025304e+00	1.026587e+00	1.026675e+00	1.025314e+00	1.020539e+00	1.012349e+00	1.004844e+00	1.001250e+00	1.000255e+00	1.000053e+00	1.000013e+00	1.000004e+00	1.000001e+00	1.000000e+00	1.000000e+00	1.000000e+00	1.000000e+00	1.000000e+00	1.000000e+00	1.000000e+00	1.000000e+00	1.000000e+00	1.000000e+00	1.000000e+00	1.000000e+00	1.000000e+00	1.000000e+00	1.000000e+00	1.000000e+00	1.000000e+00	1.000000e+00	1.000000e+00	1.000000e+00	1.000000e+00	1.000000e+00	1.000000e+00	1.000000e+00	1.000000e+00	1.000000e+00	1.000000e+00	1.000000e+00	1.000000e+00	1.000000e+00	1.000000e+00	1.000000e+00	1.000000e+00	1.000000e+00	1.000000e+00	1.000000e+00	1.000000e+00	1.000000e+00	1.000000e+00	9.704705e-01	9.709397e-01	9.737758e-01	9.775010e-01	9.821927e-01	9.884600e-01	9.963701e-01	1.005438e+00	1.014383e+00	1.020670e+00	1.023200e+00	1.024100e+00	1.023989e+00	1.021070e+00	1.014847e+00	1.008508e+00	1.005432e+00	1.004943e+00	1.005245