# vtk DataFile Version 3.0
vtk output
ASCII
DATASET STRUCTURED_GRID
DIMENSIONS 101 101 1
POINTS 10201 double
0.000000e+00	0.000000e+00	0.0	1.000000e-02	0.000000e+00	0.0	2.000000e-02	0.000000e+00	0.0	3.000000e-02	0.000000e+00	0.0	4.000000e-02	0.000000e+00	0.0	5.000000e-02	0.000000e+00	0.0	6.000000e-02	0.000000e+00	0.0	7.000000e-02	0.000000e+00	0.0	8.000000e-02	0.000000e+00	0.0	9.000000e-02	0.000000e+00	0.0	1.000000e-01	0.000000e+00	0.0	1.100000e-01	0.000000e+00	0.0	1.200000e-01	0.000000e+00	0.0	1.300000e-01	0.000000e+00	0.0	1.400000e-01	0.000000e+00	0.0	1.500000e-01	0.000000e+00	0.0	1.600000e-01	0.000000e+00	0.0	1.700000e-01	0.000000e+00	0.0	1.800000e-01	0.000000e+00	0.0	1.900000e-01	0.000000e+00	0.0	2.000000e-01	0.000000e+00	0.0	2.100000e-01	0.000000e+00	0.0	2.200000e-01	0.000000e+00	0.0	2.300000e-01	0.000000e+00	0.0	2.400000e-01	0.000000e+00	0.0	2.500000e-01	0.000000e+00	0.0	2.600000e-01	0.000000e+00	0.0	2.700000e-01	0.000000e+00	0.0	2.800000e-01	0.000000e+00	0.0	2.900000e-01	0.000000e+00	0.0	3.000000e-01	0.000000e+00	0.0	3.100000e-01	0.000000e+00	0.0	3.200000e-01	0.000000e+00	0.0	3.300000e-01	0.000000e+00	0.0	3.400000e-01	0.000000e+00	0.0	3.500000e-01	0.000000e+00	0.0	3.600000e-01	0.000000e+00	0.0	3.700000e-01	0.000000e+00	0.0	3.800000e-01	0.000000e+00	0.0	3.900000e-01	0.000000e+00	0.0	4.000000e-01	0.000000e+00	0.0	4.100000e-01	0.000000e+00	0.0	4.200000e-01	0.000000e+00	0.0	4.300000e-01	0.000000e+00	0.0	4.400000e-01	0.000000e+00	0.0	4.500000e-01	0.000000e+00	0.0	4.600000e-01	0.000000e+00	0.0	4.700000e-01	0.000000e+00	0.0	4.800000e-01	0.000000e+00	0.0	4.900000e-01	0.000000e+00	0.0	5.000000e-01	0.000000e+00	0.0	5.100000e-01	0.000000e+00	0.0	5.200000e-01	0.000000e+00	0.0	5.300000e-01	0.000000e+00	0.0	5.400000e-01	0.000000e+00	0.0	5.500000e-01	0.000000e+00	0.0	5.600000e-01	0.000000e+00	0.0	5.700000e-01	0.000000e+00	0.0	5.800000e-01	0.000000e+00	0.0	5.900000e-01	0.000000e+00	0.0	6.000000e-01	0.000000e+00	0.0	6.100000e-01	0.000000e+00	0.0	6.200000e-01	0.000000e+00	0.0	6.300000e-01	0.000000e+00	0.0	6.400000e-01	0.000000e+00	0.0	6.500000e-01	0.000000e+00	0.0	6.600000e-01	0.000000e+00	0.0	6.700000e-01	0.000000e+00	0.0	6.800000e-01	0.000000e+00	0.0	6.900000e-01	0.000000e+00	0.0	7.000000e-01	0.000000e+00	0.0	7.100000e-01	0.000000e+00	0.0	7.200000e-01	0.000000e+00	0.0	7.300000e-01	0.000000e+00	0.0	7.400000e-01	0.000000e+00	0.0	7.500000e-01	0.000000e+00	0.0	7.600000e-01	0.000000e+00	0.0	7.700000e-01	0.000000e+00	0.0	7.800000e-01	0.000000e+00	0.0	7.900000e-01	0.000000e+00	0.0	8.000000e-01	0.000000e+00	0.0	8.100000e-01	0.000000e+00	0.0	8.200000e-01	0.000000e+00	0.0	8.300000e-01	0.000000e+00	0.0	8.400000e-01	0.000000e+00	0.0	8.500000e-01	0.000000e+00	0.0	8.600000e-01	0.000000e+00	0.0	8.700000e-01	0.000000e+00	0.0	8.800000e-01	0.000000e+00	0.0	8.900000e-01	0.000000e+00	0.0	9.000000e-01	0.000000e+00	0.0	9.100000e-01	0.000000e+00	0.0	9.200000e-01	0.000000e+00	0.0	9.300000e-01	0.000000e+00	0.0	9.400000e-01	0.000000e+00	0.0	9.500000e-01	0.000000e+00	0.0	9.600000e-01	0.000000e+00	0.0	9.700000e-01	0.000000e+00	0.0	9.800000e-01	0.000000e+00	0.0	9.900000e-01	0.000000e+00	0.0	1.000000e+00	0.000000e+00	0.0	0.000000e+00	1.000000e-02	0.0	1.000000e-02	1.000000e-02	0.0	2.000000e-02	1.000000e-02	0.0	3.000000e-02	1.000000e-02	0.0	4.000000e-02	1.000000e-02	0.0	5.000000e-02	1.000000e-02	0.0	6.000000e-02	1.000000e-02	0.0	7.000000e-02	1.000000e-02	0.0	8.000000e-02	1.000000e-02	0.0	9.000000e-02	1.000000e-02	0.0	1.000000e-01	1.000000e-02	0.0	1.100000e-01	1.000000e-02	0.0	1.200000e-01	1.000000e-02	0.0	1.300000e-01	1.000000e-02	0.0	1.400000e-01	1.000000e-02	0.0	1.500000e-01	1.000000e-02	0.0	1.600000e-01	1.000000e-02	0.0	1.700000e-01	1.000000e-02	0.0	1.800000e-01	1.000000e-02	0.0	1.900000e-01	1.000000e-02	0.0	2.000000e-01	1.000000e-02	0.0	2.100000e-01	1.000000e-02	0.0	2.200000e-01	1.000000e-02	0.0	2.300000e-01	1.000000e-02	0.0	2.400000e-01	1.000000e-02	0.0	2.500000e-01	1.000000e-02	0.0	2.600000e-01	1.000000e-02	0.0	2.700000e-01	1.000000e-02	0.0	2.800000e-01	1.000000e-02	0.0	2.900000e-01	1.000000e-02	0.0	3.000000e-01	1.000000e-02	0.0	3.100000e-01	1.000000e-02	0.0	3.200000e-01	1.000000e-02	0.0	3.300000e-01	1.000000e-02	0.0	3.400000e-01	1.000000e-02	0.0	3.500000e-01	1.000000e-02	0.0	3.600000e-01	1.000000e-02	0.0	3.700000e-01	1.000000e-02	0.0	3.800000e-01	1.000000e-02	0.0	3.900000e-01	1.000000e-02	0.0	4.000000e-01	1.000000e-02	0.0	4.100000e-01	1.000000e-02	0.0	4.200000e-01	1.000000e-02	0.0	4.300000e-01	1.000000e-02	0.0	4.400000e-01	1.000000e-02	0.0	4.500000e-01	1.000000e-02	0.0	4.600000e-01	1.000000e-02	0.0	4.700000e-01	1.000000e-02	0.0	4.800000e-01	1.000000e-02	0.0	4.900000e-01	1.000000e-02	0.0	5.000000e-01	1.000000e-02	0.0	5.100000e-01	1.000000e-02	0.0	5.200000e-01	1.000000e-02	0.0	5.300000e-01	1.000000e-02	0.0	5.400000e-01	1.000000e-02	0.0	5.500000e-01	1.000000e-02	0.0	5.600000e-01	1.000000e-02	0.0	5.700000e-01	1.000000e-02	0.0	5.800000e-01	1.000000e-02	0.0	5.900000e-01	1.000000e-02	0.0	6.000000e-01	1.000000e-02	0.0	6.100000e-01	1.000000e-02	0.0	6.200000e-01	1.000000e-02	0.0	6.300000e-01	1.000000e-02	0.0	6.400000e-01	1.000000e-02	0.0	6.500000e-01	1.000000e-02	0.0	6.600000e-01	1.000000e-02	0.0	6.700000e-01	1.000000e-02	0.0	6.800000e-01	1.000000e-02	0.0	6.900000e-01	1.000000e-02	0.0	7.000000e-01	1.000000e-02	0.0	7.100000e-01	1.000000e-02	0.0	7.200000e-01	1.000000e-02	0.0	7.300000e-01	1.000000e-02	0.0	7.400000e-01	1.000000e-02	0.0	7.500000e-01	1.000000e-02	0.0	7.600000e-01	1.000000e-02	0.0	7.700000e-01	1.000000e-02	0.0	7.800000e-01	1.000000e-02	0.0	7.900000e-01	1.000000e-02	0.0	8.000000e-01	1.000000e-02	0.0	8.100000e-01	1.000000e-02	0.0	8.200000e-01	1.000000e-02	0.0	8.300000e-01	1.000000e-02	0.0	8.400000e-01	1.000000e-02	0.0	8.500000e-01	1.000000e-02	0.0	8.600000e-01	1.000000e-02	0.0	8.700000e-01	1.000000e-02	0.0	8.800000e-01	1.000000e-02	0.0	8.900000e-01	1.000000e-02	0.0	9.000000e-01	1.000000e-02	0.0	9.100000e-01	1.000000e-02	0.0	9.200000e-01	1.000000e-02	0.0	9.300000e-01	1.000000e-02	0.0	9.400000e-01	1.000000e-02	0.0	9.500000e-01	1.000000e-02	0.0	9.600000e-01	1.000000e-02	0.0	9.700000e-01	1.000000e-02	0.0	9.800000e-01	1.000000e-02	0.0	9.900000e-01	1.000000e-02	0.0	1.000000e+00	1.000000e-02	0.0	0.000000e+00	2.000000e-02	0.0	1.000000e-02	2.000000e-02	0.0	2.000000e-02	2.000000e-02	0.0	3.000000e-02	2.000000e-02	0.0	4.000000e-02	2.000000e-02	0.0	5.000000e-02	2.000000e-02	0.0	6.000000e-02	2.000000e-02	0.0	7.000000e-02	2.000000e-02	0.0	8.000000e-02	2.000000e-02	0.0	9.000000e-02	2.000000e-02	0.0	1.000000e-01	2.000000e-02	0.0	1.100000e-01	2.000000e-02	0.0	1.200000e-01	2.000000e-02	0.0	1.300000e-01	2.000000e-02	0.0	1.400000e-01	2.000000e-02	0.0	1.500000e-01	2.000000e-02	0.0	1.600000e-01	2.000000e-02	0.0	1.700000e-01	2.000000e-02	0.0	1.800000e-01	2.000000e-02	0.0	1.900000e-01	2.000000e-02	0.0	2.000000e-01	2.000000e-02	0.0	2.100000e-01	2.000000e-02	0.0	2.200000e-01	2.000000e-02	0.0	2.300000e-01	2.000000e-02	0.0	2.400000e-01	2.000000e-02	0.0	2.500000e-01	2.000000e-02	0.0	2.600000e-01	2.000000e-02	0.0	2.700000e-01	2.000000e-02	0.0	2.800000e-01	2.000000e-02	0.0	2.900000e-01	2.000000e-02	0.0	3.000000e-01	2.000000e-02	0.0	3.100000e-01	2.000000e-02	0.0	3.200000e-01	2.000000e-02	0.0	3.300000e-01	2.000000e-02	0.0	3.400000e-01	2.000000e-02	0.0	3.500000e-01	2.000000e-02	0.0	3.600000e-01	2.000000e-02	0.0	3.700000e-01	2.000000e-02	0.0	3.800000e-01	2.000000e-02	0.0	3.900000e-01	2.000000e-02	0.0	4.000000e-01	2.000000e-02	0.0	4.100000e-01	2.000000e-02	0.0	4.200000e-01	2.000000e-02	0.0	4.300000e-01	2.000000e-02	0.0	4.400000e-01	2.000000e-02	0.0	4.500000e-01	2.000000e-02	0.0	4.600000e-01	2.000000e-02	0.0	4.700000e-01	2.000000e-02	0.0	4.800000e-01	2.000000e-02	0.0	4.900000e-01	2.000000e-02	0.0	5.000000e-01	2.000000e-02	0.0	5.100000e-01	2.000000e-02	0.0	5.200000e-01	2.000000e-02	0.0	5.300000e-01	2.000000e-02	0.0	5.400000e-01	2.000000e-02	0.0	5.500000e-01	2.000000e-02	0.0	5.600000e-01	2.000000e-02	0.0	5.700000e-01	2.000000e-02	0.0	5.800000e-01	2.000000e-02	0.0	5.900000e-01	2.000000e-02	0.0	6.000000e-01	2.000000e-02	0.0	6.100000e-01	2.000000e-02	0.0	6.200000e-01	2.000000e-02	0.0	6.300000e-01	2.000000e-02	0.0	6.400000e-01	2.000000e-02	0.0	6.500000e-01	2.000000e-02	0.0	6.600000e-01	2.000000e-02	0.0	6.700000e-01	2.000000e-02	0.0	6.800000e-01	2.000000e-02	0.0	6.900000e-01	2.000000e-02	0.0	7.000000e-01	2.000000e-02	0.0	7.100000e-01	2.000000e-02	0.0	7.200000e-01	2.000000e-02	0.0	7.300000e-01	2.000000e-02	0.0	7.400000e-01	2.000000e-02	0.0	7.500000e-01	2.000000e-02	0.0	7.600000e-01	2.000000e-02	0.0	7.700000e-01	2.000000e-02	0.0	7.800000e-01	2.000000e-02	0.0	7.900000e-01	2.000000e-02	0.0	8.000000e-01	2.000000e-02	0.0	8.100000e-01	2.000000e-02	0.0	8.200000e-01	2.000000e-02	0.0	8.300000e-01	2.000000e-02	0.0	8.400000e-01	2.000000e-02	0.0	8.500000e-01	2.000000e-02	0.0	8.600000e-01	2.000000e-02	0.0	8.700000e-01	2.000000e-02	0.0	8.800000e-01	2.000000e-02	0.0	8.900000e-01	2.000000e-02	0.0	9.000000e-01	2.000000e-02	0.0	9.100000e-01	2.000000e-02	0.0	9.200000e-01	2.000000e-02	0.0	9.300000e-01	2.000000e-02	0.0	9.400000e-01	2.000000e-02	0.0	9.500000e-01	2.000000e-02	0.0	9.600000e-01	2.000000e-02	0.0	9.700000e-01	2.000000e-02	0.0	9.800000e-01	2.000000e-02	0.0	9.900000e-01	2.000000e-02	0.0	1.000000e+00	2.000000e-02	0.0	0.000000e+00	3.000000e-02	0.0	1.000000e-02	3.000000e-02	0.0	2.000000e-02	3.000000e-02	0.0	3.000000e-02	3.000000e-02	0.0	4.000000e-02	3.000000e-02	0.0	5.000000e-02	3.000000e-02	0.0	6.000000e-02	3.000000e-02	0.0	7.000000e-02	3.000000e-02	0.0	8.000000e-02	3.000000e-02	0.0	9.000000e-02	3.000000e-02	0.0	1.000000e-01	3.000000e-02	0.0	1.100000e-01	3.000000e-02	0.0	1.200000e-01	3.000000e-02	0.0	1.300000e-01	3.000000e-02	0.0	1.400000e-01	3.000000e-02	0.0	1.500000e-01	3.000000e-02	0.0	1.600000e-01	3.000000e-02	0.0	1.700000e-01	3.000000e-02	0.0	1.800000e-01	3.000000e-02	0.0	1.900000e-01	3.000000e-02	0.0	2.000000e-01	3.000000e-02	0.0	2.100000e-01	3.000000e-02	0.0	2.200000e-01	3.000000e-02	0.0	2.300000e-01	3.000000e-02	0.0	2.400000e-01	3.000000e-02	0.0	2.500000e-01	3.000000e-02	0.0	2.600000e-01	3.000000
[...]
POINT_DATA 10201

SCALARS Height double 1
LOOKUP_TABLE default
9.966780e-01	9.966758e-01	9.966849e-01	9.966631e-01	9.966413e-01	9.966100e-01	9.965687e-01	9.965195e-01	9.964669e-01	9.964083e-01	9.963441e-01	9.962738e-01	9.961938e-01	9.961025e-01	9.959976e-01	9.958777e-01	9.957402e-01	9.955825e-01	9.953987e-01	9.951878e-01	9.949438e-01	9.946568e-01	9.943190e-01	9.939000e-01	9.933358e-01	9.925169e-01	9.913014e-01	9.895934e-01	9.874596e-01	9.852028e-01	9.832807e-01	9.820166e-01	9.814511e-01	9.814528e-01	9.824075e-01	9.851118e-01	9.896847e-01	9.958399e-01	1.003095e+00	1.010888e+00	1.018481e+00	1.024949e+00	1.029471e+00	1.031824e+00	1.032247e+00	1.030404e+00	1.023753e+00	1.013482e+00	1.004685e+00	9.999910e-01	9.981886e-01	9.976172e-01	9.974485e-01	9.973861e-01	9.973391e-01	9.972725e-01	9.971662e-01	9.970153e-01	9.968251e-01	9.966026e-01	9.963514e-01	9.960700e-01	9.957486e-01	9.953579e-01	9.948398e-01	9.940939e-01	9.929781e-01	9.913655e-01	9.892758e-01	9.869763e-01	9.849330e-01	9.835267e-01	9.828161e-01	9.827046e-01	9.833969e-01	9.857768e-01	9.901052e-01	9.961723e-01	1.003497e+00	1.011480e+00	1.019347e+00	1.026150e+00	1.031023e+00	1.033672e+00	1.034307e+00	1.032810e+00	1.026599e+00	1.016368e+00	1.007318e+00	1.002499e+00	1.000715e+00	1.000185e+00	1.000045e+00	1.000011e+00	1.000003e+00	1.000001e+00	1.000000e+00	1.000000e+00	1.000000e+00	1.000000e+00	1.000000e+00	9.966758e-01	9.966660e-01	9.966764e-01	9.966537e-01	9.966307e-01	9.965985e-01	9.965574e-01	9.965083e-01	9.964544e-01	9.963939e-01	9.963274e-01	9.962543e-01	9.961716e-01	9.960774e-01	9.959698e-01	9.958467e-01	9.957056e-01	9.955447e-01	9.953555e-01	9.951401e-01	9.948925e-01	9.946041e-01	9.942645e-01	9.938404e-01	9.932660e-01	9.924323e-01	9.912046e-01	9.894862e-01	9.873459e-01	9.850728e-01	9.830850e-01	9.818098e-01	9.814246e-01	9.815033e-01	9.824497e-01	9.851351e-01	9.897425e-01	9.959412e-01	1.003237e+00	1.011052e+00	1.018672e+00	1.025294e+00	1.030036e+00	1.032027e+00	1.032155e+00	1.030405e+00	1.024118e+00	1.013711e+00	1.004356e+00	9.995572e-01	9.979534e-01	9.975251e-01	9.974091e-01	9.973611e-01	9.973178e-01	9.972524e-01	9.971463e-01	9.969941e-01	9.968014e-01	9.965763e-01	9.963224e-01	9.960375e-01	9.957109e-01	9.953133e-01	9.947847e-01	9.940240e-01	9.928931e-01	9.912680e-01	9.891683e-01	9.868502e-01	9.847443e-01	9.832936e-01	9.827454e-01	9.827413e-01	9.834433e-01	9.857981e-01	9.901621e-01	9.962647e-01	1.003631e+00	1.011639e+00	1.019532e+00	1.026477e+00	1.031600e+00	1.033963e+00	1.034220e+00	1.032801e+00	1.026969e+00	1.016656e+00	1.006994e+00	1.002045e+00	1.000480e+00	1.000105e+00	1.000023e+00	1.000005e+00	1.000001e+00	1.000000e+00	1.000000e+00	1.000000e+00	1.000000e+00	1.000000e+00	1.000000e+00	9.966849e-01	9.966764e-01	9.966882e-01	9.966629e-01	9.966392e-01	9.966066e-01	9.965646e-01	9.965137e-01	9.964587e-01	9.963978e-01	9.963307e-01	9.962568e-01	9.961729e-01	9.960781e-01	9.959703e-01	9.958474e-01	9.957066e-01	9.955463e-01	9.953571e-01	9.951429e-01	9.948959e-01	9.946029e-01	9.942522e-01	9.938070e-01	9.931987e-01	9.923212e-01	9.910666e-01	9.893728e-01	9.873123e-01	9.851218e-01	9.832021e-01	9.820932e-01	9.818311e-01	9.819321e-01	9.828933e-01	9.855180e-01	9.900791e-01	9.961576e-01	1.003277e+00	1.010897e+00	1.018436e+00	1.025143e+00	1.029706e+00	1.031261e+00	1.031316e+00	1.029673e+00	1.023940e+00	1.014158e+00	1.004849e+00	9.997784e-01	9.980123e-01	9.975390e-01	9.974104e-01	9.973582e-01	9.973138e-01	9.972495e-01	9.971457e-01	9.969954e-01	9.968038e-01	9.965790e-01	9.963245e-01	9.960358e-01	9.956999e-01	9.952869e-01	9.947318e-01	9.939337e-01	9.927703e-01	9.911546e-01	9.891185e-01	9.868791e-01	9.848287e-01	9.835259e-01	9.831472e-01	9.831662e-01	9.839054e-01	9.862267e-01	9.905356e-01	9.965255e-01	1.003695e+00	1.011485e+00	1.019272e+00	1.026308e+00	1.031319e+00	1.033197e+00	1.033362e+00	1.032006e+00	1.026734e+00	1.017103e+00	1.007532e+00	1.002253e+00	1.000501e+00	1.000094e+00	1.000017e+00	1.000003e+00	1.000001e+00	1.000000e+00	1.000000e+00	1.000000e+00	1.000000e+00	1.000000e+00	1.000000e+00	9.966631e-01	9.966537e-01	9.966629e-01	9.966377e-01	9.966139e-01	9.965819e-01	9.965416e-01	9.964920e-01	9.964382e-01	9.963784e-01	9.963117e-01	9.962370e-01	9.961519e-01	9.960558e-01	9.959469e-01	9.958223e-01	9.956788e-01	9.955157e-01	9.953233e-01	9.951062e-01	9.948555e-01	9.945540e-01	9.941855e-01	9.937075e-01	9.930456e-01	9.920980e-01	9.907770e-01	9.890679e-01	9.870416e-01	9.849297e-01	9.832284e-01	9.824084e-01	9.822375e-01	9.824128e-01	9.835098e-01	9.862420e-01	9.907657e-01	9.967434e-01	1.003655e+00	1.011099e+00	1.018639e+00	1.025291e+00	1.029305e+00	1.030458e+00	1.030398e+00	1.028707e+00	1.023256e+00	1.014123e+00	1.005322e+00	1.000180e+00	9.981840e-01	9.975759e-01	9.974026e-01	9.973354e-01	9.972846e-01	9.972178e-01	9.971141e-01	9.969642e-01	9.967718e-01	9.965453e-01	9.962872e-01	9.959914e-01	9.956406e-01	9.951982e-01	9.945973e-01	9.937343e-01	9.925026e-01	9.908536e-01	9.888334e-01	9.866491e-01	9.847830e-01	9.837979e-01	9.835361e-01	9.836262e-01	9.845141e-01	9.869834e-01	9.912902e-01	9.971764e-01	1.004122e+00	1.011701e+00	1.019465e+00	1.026493e+00	1.030993e+00	1.032426e+00	1.032459e+00	1.031036e+00	1.026015e+00	1.017082e+00	1.008028e+00	1.002643e+00	1.000646e+00	1.000129e+00	1.000023e+00	1.000004e+00	1.000001e+00	1.000000e+00	1.000000e+00	1.000000e+00	1.000000e+00	1.000000e+00	1.000000e+00	9.966413e-01	9.966307e-01	9.966392e-01	9.966139e-01	9.965885e-01	9.965556e-01	9.965156e-01	9.964664e-01	9.964120e-01	9.963514e-01	9.962831e-01	9.962062e-01	9.961189e-01	9.960209e-01	9.959105e-01	9.957840e-01	9.956378e-01	9.954708e-01	9.952761e-01	9.950551e-01	9.947980e-01	9.944846e-01	9.940898e-01	9.935629e-01	9.928237e-01	9.917926e-01	9.903985e-01	9.886501e-01	9.866598e-01	9.847335e-01	9.833978e-01	9.828465e-01	9.827868e-01	9.830600e-01	9.843334e-01	9.872144e-01	9.917385e-01	9.975197e-01	1.004161e+00	1.011450e+00	1.018948e+00	1.025247e+00	1.028609e+00	1.029395e+00	1.029254e+00	1.027465e+00	1.022211e+00	1.013916e+00	1.005890e+00	1.000792e+00	9.984819e-01	9.976656e-01	9.974078e-01	9.973118e-01	9.972493e-01	9.971776e-01	9.970731e-01	9.969240e-01	9.967313e-01	9.965019e-01	9.962384e-01	9.959323e-01	9.955589e-01	9.950711e-01	9.944026e-01	9.934569e-01	9.921457e-01	9.904395e-01	9.884263e-01	9.863904e-01	9.848819e-01	9.842051e-01	9.840814e-01	9.842560e-01	9.853336e-01	9.879836e-01	9.923384e-01	9.980422e-01	1.004695e+00	1.012072e+00	1.019790e+00	1.026519e+00	1.030345e+00	1.031367e+00	1.031307e+00	1.029799e+00	1.024965e+00	1.016859e+00	1.008611e+00	1.003254e+00	1.000921e+00	1.000202e+00	1.000037e+00	1.000006e+00	1.000001e+00	1.000000e+00	1.000000e+00	1.000000e+00	1.000000e+00	1.000000e+00	1.000000e+00	9.966100e-01	9.965985e-01	9.966066e-01	9.965819e-01	9.965556e-01	9.965222e-01	9.964829e-01	9.964345e-01	9.963795e-01	9.963180e-01	9.962478e-01	9.961685e-01	9.960788e-01	9.959781e-01	9.958646e-01	9.957341e-01	9.955836e-01	9.954116e-01	9.952134e-01	9.949862e-01	9.947205e-01	9.943873e-01	9.939527e-01	9.933552e-01	9.925230e-01	9.913804e-01	9.899015e-01	9.881180e-01	9.862111e-01	9.845987e-01	9.836887e-01	9.834126e-01	9.834399e-01	9.838805e-01	9.853976e-01	9.884588e-01	9.929545e-01	9.984881e-01	1.004847e+00	1.011991e+00	1.019284e+00	1.024963e+00	1.027660e+00	1.028147e+00	1.027901e+00	1.025940e+00	1.020893e+00	1.013550e+00	1.006490e+00	1.001560e+00	9.989141e-01	9.978073e-01	9.974214e-01	9.972819e-01	9.972030e-01	9.971242e-01	9.970177e-01	9.968692e-01	9.966762e-01	9.964433e-01	9.961721e-01	9.958493e-01	9.954425e-01	9.948967e-01	9.941299e-01	9.930654e-01	9.916516e-01	9.898935e-01	9.879288e-01	9.861739e-01	9.851175e-01	9.847365e-01	9.847238e-01	9.850582e-01	9.863892e-01	9.892564e-01	9.936322e-01	9.991138e-01	1.005462e+00	1.012652e+00	1.020178e+00	1.026329e+00	1.029458e+00	1.030121e+00	1.029963e+00	1.028295e+00	1.023641e+00	1.016458e+00	1.009219e+00	1.004040e+00	1.001338e+00	1.000330e+00	1.000063e+00	1.000010e+00	1.000001e+00	1.000000e+00	1.000000e+00	1.000000e+00	1.000000e+00	1.000000e+00	1.000000e+00	9.965687e-01	9.965574e-01	9.965646e-01	9.965416e-01	9.965156e-01	9.964829e-01	9.964450e-01	9.963975e-01	9.963415e-01	9.962785e-01	9.962066e-01	9.961248e-01	9.960323e-01	9.959276e-01	9.958087e-01	9.956719e-01	9.955148e-01	9.953362e-01	9.951327e-01	9.948965e-01	9.946161e-01	9.942533e-01	9.937652e-01	9.930816e-01	9.921250e-01	9.908517e-01	9.892659e-01	9.874703e-01	9.857763e-01	9.846116e-01	9.841114e-01	9.840750e-01	9.842065e-01	9.848958e-01	9.867148e-01	9.899449e-01	9.943688e-01	9.996477e-01	1.005749e+00	1.012647e+00	1.019505e+00	1.024424e+00	1.026440e+00	1.026714e+00	1.026338e+00	1.024180e+00	1.019421e+00	1.013110e+00	1.007097e+00	1.002436e+00	9.994701e-01	9.980097e-01	9.974506e-01	9.972488e-01	9.971479e-01	9.970592e-01	9.969488e-01	9.967989e-01	9.966050e-01	9.963680e-01	9.960845e-01	9.957376e-01	9.952830e-01	9.946536e-01	9.937706e-01	9.925682e-01	9.910270e-01	9.892201e-01	9.874231e-01	9.860955e-01	9.854840e-01	9.853883e-01	9.854745e-01	9.860499e-01	9.877012e-01	9.907814e-01	9.951324e-01	1.000384e+00	1.006447e+00	1.013378e+00	1.020491e+00	1.025864e+00	1.028284e+00	1.028680e+00	1.028413e+00	1.026562e+00	1.022144e+00	1.015962e+00	1.009821e+00	1.004945e+00	1.001890e+00	1.000521e+00	1.000106e+00	1.000017e+00	1.000002e+00	1.000000e+00	1.000000e+00	1.000000e+00	1.000000e+00	1.000000e+00	1.000000e+00	9.965195e-01	9.965083e-01	9.965137e-01	9.964920e-01	9.964664e-01	9.964345e-01	9.963975e-01	9.963505e-01	9.962939e-01	9.962304e-01	9.961578e-01	9.960746e-01	9.959798e-01	9.958709e-01	9.957457e-01	9.956013e-01	9.954351e-01	9.952469e-01	9.950376e-01	9.947871e-01	9.944835e-01	9.940799e-01	9.935142e-01	9.927123e-01	9.916121e-01	9.901879e-01	9.885013e-01	9.867874e-01	9.854541e-01	9.848187e-01	9.847060e-01	9.847829e-01	9.851239e-01	9.861524e-01	9.882915e-01	9.916392e-01	9.959490e-01	1.001004e+00	1.006832e+00	1.013329e+00	1.019498e+00	1.023586e+00	1.024981e+00	1.025096e+00	1.024544e+00	1.022242e+00	1.017892e+00	1.012667e+00	1.007686e+00	1.003363e+00	1.000119e+00	9.982708e-01	9.974967e-01	9.972151e-01	9.970860e-01	9.969865e-01	9.968708e-01	9.967180e-01	9.965207e-01	9.962771e-01	9.959764e-01	9.955901e-01	9.950658e-01	9.943258e-01	9.932937e-01	9.919273e-01	9.902623e-01	9.884833e-01	9.870017e-01	9.862433e-01	9.860367e-01	9.860864e-01	9.863634e-01	9.872788e-01	9.892822e-01	9.925307e-01	9.968040e-01	1.001846e+00	1.007639e+00	1.014159e+00	1.020594e+00	1.025141e+00	1.026864e+00	1.027060e+00	1.026651e+00	1.024650e+00	1.020586e+00	1.015462e+00	1.010402e+00	1.005908e+00	1.002555e+00	1.000776e+00	1.000167e+00	1.000028e+00	1.000004e+00	1.000001e+00	1.000000e+00	1.000000e+00	1.000000e+00	1.000000e+00	1.000000e+00	9.964669e-01	9.964544e-01	9.964587e-01	9.964382e-01	9.964120e-01	9.963795e-01	9.963415e-01	9.962939e-01	9.962361e-01	9.961717e-01	9.960977e-01	9.960121e-01	9.959140e-01	9.958005e-01	9.956687e-01	9.955164e-01	9.953424e-01	9.951453e-01	9.949224e-01	9.946558e-01	9.943190e-01	9.938474e-01	9.931770e-01	9.922280e-01	9.909492e-01	9.893585e-01	9.876221e-01	9.861662e-01	9.854239e-01	9.852366e-01	9.853297e-01	9.855870e-01	9.862557e-01	9.876774e-01	9.901098e-01	9.935087e-01	9.976779e-01	1.002529e+00	1.008046e+00	1.013942e+00	1.019170e+00	1.022379e+00	1.023293e+00	1.023279e+00	1.022547e+00	1.020203e+00	1.016419e+00	1.012284e+00	1.008255e+00	1.004290e+00	1.000822e+00	9.985744e-01	9.975526e-01	9.971745e-01	9.970120e-01	9.969004e-01	9.967802e-01	9.966246e-01	9.964225e-01	9.961676e-01	9.958418e-01	9.954013e-01	9.947785e-01	9.938913e-01	9.926756e-01	9.911256e-01	9.893593e-01	9.877749e-01	9.868714e-01	9.865904e-01	9.866503e-01	9.868608e-01	9.874557e-01	9.887776e-01	9.911170e-01	9.944699e-01	9.986297e-01	1.003472e+00	1.008974e+00	1.014901e+00	1.020384e+00	1.024029e+00	1.025212e+00	1.025261e+00	1.024694e+00	1.022630e+00	1.019070e+00	1.015013e+00	1.010957e+00	1.006880e+00	1.003295e+00	1.001090e+00	1.000248e+00	1.000043e+00	1.000006e+00	1.000001e+00	1.000000e+00	1.000000e+00	1.000000e+00	1.000000e+00	1.000000e+00	9.964083e-01	9.963939e-01	9.963978e-01	9.963784e-01	9.963514e-01	9.963180e-01	9.962785e-01	9.962304e-01	9.961717e-01	9.961059e-01	9.960293e-01	9.959392e-01	9.958350e-01	9.957144e-01	9.955746e-01	9.954121e-01	9.952276e-01	9.950200e-01	9.947816e-01	9.944865e-01	9.940965e-01	9.935357e-01	9.927239e-01	9.915876e-01	9.900939e-01	9.883544e-01	9.867766e-01	9.858801e-01	9.856573e-01	9.857503e-01	9.860166e-01	9.865799e-01	9.876513e-01	9.894730e-01	9.921351e-01	9.955277e-01	9.995407e-01	1.004170e+00	1.009286e+00	1.014356e+00	1.018516e+00	1.020837e+00	1.021381e+00	1.021255e+00	1.020387e+00	1.018162e+00	1.015099e+00	1.012007e+00	1.008809e+00	1.005187e+00	1.001541e+00	9.989080e-01	9.976202e-01	9.971296e-01	9.969256e-01	9.967953e-01	9.966671e-01	9.965091e-01	9.963032e-01	9.960310e-01	9.956619e-01	9.951403e-01	9.943845e-01	9.933106e-01	9.918708e-01	9.901322e-01	9.884405e-01	9.873654e-01	9.870509e-01	9.870863e-01	9.873060e-01	9.878117e-01	9.888081e-01	9.905524e-01	9.931737e-01	9.965713e-01	1.000598e+00	1.005220e+00	1.010347e+00	1.015490e+00	1.019844e+00	1.022552e+00	1.023341e+00	1.023274e+00	1.022579e+00	1.020602e+00	1.017698e+00	1.014670e+00	1.011492e+00	1.007824e+00	1.004069e+00	1.001450e+00	1.000349e+00	1.000062e+00	1.000009e+00	1.000001e+00	1.000000e+00	1.000000e+00	1.000000e+00	1.000000e+00	1.000000e+00	9.963441e-01	9.963274e-01	9.963307e-01	9.963117e-01	9.962831e-01	9.962478e-01	9.962066e-01	9.961578e-01	9.960977e-01	9.960293e-01	9.959493e-01	9.958542e-01	9.957432e-01	9.956143e-01	9.954648e-01	9.952919e-01	9.950948e-01	9.948729e-01	9.946132e-01	9.942732e-01	9.938017e-01	9.931105e-01	9.921127e-01	9.907306e-01	9.890064e-01	9.872943e-01	9.862300e-01	9.859675e-01	9.860302e-01	9.863092e-01	9.868694e-01	9.878265e-01	9.893414e-01	9.915229e-01	9.943343e-01	9.976773e-01	1.001518e+00	1.005854e+00	1.010399e+00	1.014442e+00	1.017401e+00	1.018922e+00	1.019257e+00	1.019041e+00	1.018134e+00	1.016244e+00	1.014010e+00	1.011846e+00	1.009342e+00	1.006022e+00	1.002237e+00	9.992511e-01	9.976968e-01	9.970838e-01	9.968313e-01	9.966797e-01	9.965402e-01	9.963747e-01	9.961571e-01	9.958557e-01	9.954215e-01	9.947807e-01	9.938403e-01	9.925188e-01	9.908220e-01	9.890230e-01	9.877763e-01	9.873969e-01	9.873922e-01	9.876155e-01	9.881190e-01	9.890111e-01	9.904548e-01	9.925947e-01	9.954231e-01	9.988161e-01	1.002691e+00	1.007031e+00	1.011593e+00	1.015760e+00	1.018897e+00	1.020679e+00	1.021250e+00	1.021107e+00	1.020374e+00	1.018689e+00	1.016558e+00	1.014452e+00	1.012014e+00	1.008706e+00	1.004838e+00	1.001836e+00	1.000465e+00	1.000086e+00	1.000013e+00	1.000002e+00	1.000000e+00	1.000000e+00	1.000000e+00	1.000000e+00	1.000000e+00	9.962738e-01	9.962543e-01	9.962568e-01	9.962370e-01	9.962062e-01	9.961685e-01	9.961248e-01	9.960746e-01	9.960121e-01	9.959392e-01	9.958542e-01	9.957532e-01	9.956344e-01	9.954956e-01	9.953352e-01	9.951524e-01	9.949433e-01	9.947001e-01	9.944028e-01	9.939936e-01	9.934044e-01	9.925334e-01	9.912758e-01	9.895918e-01	9.877591e-01	9.865225e-01	9.861812e-01	9.862044e-01	9.864530e-01	9.870117e-01	9.879593e-01	9.893713e-01	9.913216e-01	9.937915e-01	9.966791e-01	9.999370e-01	1.003579e+00	1.007477e+00	1.011205e+00	1.014148e+00	1.015891e+00	1.016669e+00	1.016882e+00	1.016671e+00	1.015925e+00	1.014597e+00	1.013196e+00	1.011795e+00	1.009843e+00	1.006764e+00	1.002873e+00	9.995795e-01	9.977722e-01	9.970320e-01	9.967265e-01	9.965511e-01	9.963987e-01	9.962215e-01	9.959815e-01	9.956296e-01	9.950943e-01	9.942796e-01	9.930798e-01	9.914400e-01	9.895595e-01	9.881409e-01	9.876422e-01	9.876035e-01	9.877867e-01	9.882822e-01	9.891654e-01	9.905046e-01	9.923985e-01	9.948748e-01	9.978380e-01	1.001187e+00	1.004876e+00	1.008790e+00	1.012570e+00	1.015603e+00	1.017545e+00	1.018481e+00	1.018881e+00	1.018782e+00	1.018209e+00	1.017033e+00	1.015704e+00	1.014365e+00	1.012513e+00	1.009509e+00	1.005561e+00	1.002228e+00	1.000594e+00	1.000115e+00	1.000018e+00	1.000003e+00	1.000000e+00	1.000000e+00	1.000000e+00	1.000000e+00	1.000000e+00	9.961938e-01	9.961716e-01	9.961729e-01	9.961519e-01	9.961189e-01	9.960788e-01	9.960323e-01	9.959798e-01	9.959140e-01	9.958350e-01	9.957432e-01	9.956344e-01	9.955063e-01	9.953568e-01	9.951847e-01	9.949891e-01	9.947638e-01	9.944878e-01	9.941294e-01	9.936169e-01	9.928568e-01	9.917232e-01	9.901101e-01	9.882036e-01	9.867932e-01	9.863338e-01	9.863298e-01	9.865109e-01	9.870143e-01	9.879473e-01	9.893489e-01	9.912303e-01	9.935577e-01	9.962270e-01	9.991354e-01	1.002271e+00	1.005630e+00	1.008908e+00	1.011508e+00	1.013260e+00	1.013981e+00	1.014168e+00	1.014247e+00	1.014239e+00	1.013927e+00	1.013315e+00	1.012669e+00	1.011842e+00	1.010296e+00	1.007397e+00	1.003419e+00	9.998755e-01	9.978397e-01	9.969722e-01	9.966090e-01	9.964064e-01	9.962368e-01	9.960389e-01	9.957579e-01	9.953210e-01	9.946273e-01	9.935517e-01	9.919888e-01	9.900731e-01	9.884895e-01	9.878403e-01	9.877664e-01	9.878879e-01	9.883180e-01	9.891798e-01	9.905052e-01	9.923144e-01	9.946172e-01	9.973505e-01	1.000387e+00	1.003644e+00	1.007069e+00	1.010378e+00	1.013050e+00	1.014917e+00	1.015773e+00	1.016064e+00	1.016221e+00	1.016405e+00	1.016224e+00	1.015732e+00	1.015158e+00	1.014400e+00	1.012980e+00	1.010213e+00	1.006212e+00	1.002607e+00	1.000730e+00	1.000147e+00	1.000024e+00	1.000004e+00	1.000001e+00	1.000000e+00	1.000000e+00	1.000000e+00	1.000000e+00	9.961025e-01	9.960775e-01	9.960781e-01	9.960558e-01	9.960209e-01	9.959781e-01	9.959276e-01	9.958709e-01	9.958005e-01	9.957144e-01	9.956143e-01	9.954956e-01	9.953568e-01	9.951963e-01	9.950120e-01	9.947988e-01	9.945441e-01	9.942177e-01	9.937632e-01	9.930911e-01	9.920687e-01	9.905491e-01	9.886217e-01	9.870523e-01	9.864546e-01	9.864254e-01	9.865515e-01	9.869560e-01	9.878146e-01	9.891989e-01	9.910850e-01	9.933951e-01	9.960044e-01	9.987806e-01	1.001665e+00	1.004657e+00	1.007583e+00	1.009907e+00	1.011319e+00	1.011716e+00	1.011653e+00	1.011507e+00	1.011463e+00	1.011774e+00	1.012373e+00	1.012458e+00	1.012363e+00	1.011946e+00	1.010680e+00	1.007896e+00	1.003855e+00	1.000122e+00	9.978921e-01	9.969028e-01	9.964789e-01	9.962438e-01	9.960479e-01	9.958123e-01	9.954580e-01	9.948774e-01	9.939259e-01	9.924562e-01	9.905413e-01	9.888215e-01	9.880200e-01	9.879039e-01	9.879698e-01	9.883002e-01	9.890816e-01	9.903853e-01	9.921889e-01	9.944472e-01	9.970821e-01	9.999775e-01	1.003033e+00	1.006166e+00	1.009175e+00	1.011564e+00	1.012998e+00	1.013548e+00	1.013563e+00	1.013466e+00	1.013471e+00	1.013887e+00	1.014662e+00	1.014921e+00	1.014848e+00	1.014506e+00	1.013397e+00	1.010799e+00	1.006771e+00	1.002958e+00	1.000867e+00	1.000182e+00	1.000031e+00	1.000005e+00	1.000001e+00	1.000000e+00	1.000000e+00	1.000000e+00	1.000000e+00	9.959976e-01	9.959698e-01	9.959703e-01	9.959469e-01	9.959105e-01	9.958646e-01	9.958087e-01	9.957457e-01	9.956687e-01	9.955746e-01	9.954648e-01	9.953352e-01	9.951847e-01	9.950120e-01	9.948110e-01	9.945710e-01	9.942680e-01	9.938559e-01	9.932515e-01	9.923220e-01	9.908978e-01	9.889897e-01	9.872920e-01	9.865526e-01	9.864926e-01	9.865820e-01	9.868916e-01	9.876314e-01	9.889424e-01	9.908226e-01	9.931687e-01	9.958191e-01	9.986053e-01	1.001445e+00	1.004332e+00	1.007097e+00	1.009148e+00	1.010104e+00	1.010247e+00	1.009720e+00	1.008995e+00	1.008679e+00	1.008694e+00	1.009577e+00	1.011203e+00	1.012159e+00	1.012245e+00	1.012053e+00	1.010954e+00	1.008251e+00	1.004176e+00	1.000310e+00	9.979236e-01	9.968214e-01	9.963335e-01	9.960570e-01	9.958178e-01	9.955124e-01	9.950250e-01	9.941922e-01	9.928293e-01	9.909452e-01	9.891304e-01	9.881993e-01	9.880288e-01	9.880559e-01	9.882863e-01	9.889367e-01	9.901571e-01	9.919480e-01	9.942265e-01	9.968720e-01	9.997474e-01	1.002751e+00	1.005828e+00	1.008774e+00	1.010934e+00	1.011938e+00	1.012161e+00	1.011694e+00	1.011000e+00	1.010689e+00	1.010717e+00	1.011657e+00	1.013476e+00	1.014645e+00	1.014770e+00	1.014650e+00	1.013729e+00	1.011259e+00	1.007230e+00	1.003273e+00	1.001001e+00	1.000219e+00	1.000038e+00	1.000006e+00	1.000001e+00	1.000000e+00	1.000000e+00	1.000000e+00	1.000000e+00	9.958777e-01	9.958467e-01	9.958474e-01	9.958223e-01	9.957840e-01	9.957341e-01	9.956719e-01	9.956013e-01	9.955164e-01	9.954121e-01	9.952919e-01	9.951524e-01	9.949891e-01	9.947988e-01	9.945710e-01	9.942842e-01	9.938997e-01	9.933442e-01	9.924901