# vtk DataFile Version 3.0
vtk output
ASCII
DATASET STRUCTURED_GRID
DIMENSIONS 101 101 1
POINTS 10201 double
0.000000e+00	0.000000e+00	0.0	1.000000e-02	0.000000e+00	0.0	2.000000e-02	0.000000e+00	0.0	3.000000e-02	0.000000e+00	0.0	4.000000e-02	0.000000e+00	0.0	5.000000e-02	0.000000e+00	0.0	6.000000e-02	0.000000e+00	0.0	7.000000e-02	0.000000e+00	0.0	8.000000e-02	0.000000e+00	0.0	9.000000e-02	0.000000e+00	0.0	1.000000e-01	0.000000e+00	0.0	1.100000e-01	0.000000e+00	0.0	1.200000e-01	0.000000e+00	0.0	1.300000e-01	0.000000e+00	0.0	1.400000e-01	0.000000e+00	0.0	1.500000e-01	0.000000e+00	0.0	1.600000e-01	0.000000e+00	0.0	1.700000e-01	0.000000e+00	0.0	1.800000e-01	0.000000e+00	0.0	1.900000e-01	0.000000e+00	0.0	2.000000e-01	0.000000e+00	0.0	2.100000e-01	0.000000e+00	0.0	2.200000e-01	0.000000e+00	0.0	2.300000e-01	0.000000e+00	0.0	2.400000e-01	0.000000e+00	0.0	2.500000e-01	0.000000e+00	0.0	2.600000e-01	0.000000e+00	0.0	2.700000e-01	0.000000e+00	0.0	2.800000e-01	0.000000e+00	0.0	2.900000e-01	0.000000e+00	0.0	3.000000e-01	0.000000e+00	0.0	3.100000e-01	0.000000e+00	0.0	3.200000e-01	0.000000e+00	0.0	3.300000e-01	0.000000e+00	0.0	3.400000e-01	0.000000e+00	0.0	3.500000e-01	0.000000e+00	0.0	3.600000e-01	0.000000e+00	0.0	3.700000e-01	0.000000e+00	0.0	3.800000e-01	0.000000e+00	0.0	3.900000e-01	0.000000e+00	0.0	4.000000e-01	0.000000e+00	0.0	4.100000e-01	0.000000e+00	0.0	4.200000e-01	0.000000e+00	0.0	4.300000e-01	0.000000e+00	0.0	4.400000e-01	0.000000e+00	0.0	4.500000e-01	0.000000e+00	0.0	4.600000e-01	0.000000e+00	0.0	4.700000e-01	0.000000e+00	0.0	4.800000e-01	0.000000e+00	0.0	4.900000e-01	0.000000e+00	0.0	5.000000e-01	0.000000e+00	0.0	5.100000e-01	0.000000e+00	0.0	5.200000e-01	0.000000e+00	0.0	5.300000e-01	0.000000e+00	0.0	5.400000e-01	0.000000e+00	0.0	5.500000e-01	0.000000e+00	0.0	5.600000e-01	0.000000e+00	0.0	5.700000e-01	0.000000e+00	0.0	5.800000e-01	0.000000e+00	0.0	5.900000e-01	0.000000e+00	0.0	6.000000e-01	0.000000e+00	0.0	6.100000e-01	0.000000e+00	0.0	6.200000e-01	0.000000e+00	0.0	6.300000e-01	0.000000e+00	0.0	6.400000e-01	0.000000e+00	0.0	6.500000e-01	0.000000e+00	0.0	6.600000e-01	0.000000e+00	0.0	6.700000e-01	0.000000e+00	0.0	6.800000e-01	0.000000e+00	0.0	6.900000e-01	0.000000e+00	0.0	7.000000e-01	0.000000e+00	0.0	7.100000e-01	0.000000e+00	0.0	7.200000e-01	0.000000e+00	0.0	7.300000e-01	0.000000e+00	0.0	7.400000e-01	0.000000e+00	0.0	7.500000e-01	0.000000e+00	0.0	7.600000e-01	0.000000e+00	0.0	7.700000e-01	0.000000e+00	0.0	7.800000e-01	0.000000e+00	0.0	7.900000e-01	0.000000e+00	0.0	8.000000e-01	0.000000e+00	0.0	8.100000e-01	0.000000e+00	0.0	8.200000e-01	0.000000e+00	0.0	8.300000e-01	0.000000e+00	0.0	8.400000e-01	0.000000e+00	0.0	8.500000e-01	0.000000e+00	0.0	8.600000e-01	0.000000e+00	0.0	8.700000e-01	0.000000e+00	0.0	8.800000e-01	0.000000e+00	0.0	8.900000e-01	0.000000e+00	0.0	9.000000e-01	0.000000e+00	0.0	9.100000e-01	0.000000e+00	0.0	9.200000e-01	0.000000e+00	0.0	9.300000e-01	0.000000e+00	0.0	9.400000e-01	0.000000e+00	0.0	9.500000e-01	0.000000e+00	0.0	9.600000e-01	0.000000e+00	0.0	9.700000e-01	0.000000e+00	0.0	9.800000e-01	0.000000e+00	0.0	9.900000e-01	0.000000e+00	0.0	1.000000e+00	0.000000e+00	0.0	0.000000e+00	1.000000e-02	0.0	1.000000e-02	1.000000e-02	0.0	2.000000e-02	1.000000e-02	0.0	3.000000e-02	1.000000e-02	0.0	4.000000e-02	1.000000e-02	0.0	5.000000e-02	1.000000e-02	0.0	6.000000e-02	1.000000e-02	0.0	7.000000e-02	1.000000e-02	0.0	8.000000e-02	1.000000e-02	0.0	9.000000e-02	1.000000e-02	0.0	1.000000e-01	1.000000e-02	0.0	1.100000e-01	1.000000e-02	0.0	1.200000e-01	1.000000e-02	0.0	1.300000e-01	1.000000e-02	0.0	1.400000e-01	1.000000e-02	0.0	1.500000e-01	1.000000e-02	0.0	1.600000e-01	1.000000e-02	0.0	1.700000e-01	1.000000e-02	0.0	1.800000e-01	1.000000e-02	0.0	1.900000e-01	1.000000e-02	0.0	2.000000e-01	1.000000e-02	0.0	2.100000e-01	1.000000e-02	0.0	2.200000e-01	1.000000e-02	0.0	2.300000e-01	1.000000e-02	0.0	2.400000e-01	1.000000e-02	0.0	2.500000e-01	1.000000e-02	0.0	2.600000e-01	1.000000e-02	0.0	2.700000e-01	1.000000e-02	0.0	2.800000e-01	1.000000e-02	0.0	2.900000e-01	1.000000e-02	0.0	3.000000e-01	1.000000e-02	0.0	3.100000e-01	1.000000e-02	0.0	3.200000e-01	1.000000e-02	0.0	3.300000e-01	1.000000e-02	0.0	3.400000e-01	1.000000e-02	0.0	3.500000e-01	1.000000e-02	0.0	3.600000e-01	1.000000e-02	0.0	3.700000e-01	1.000000e-02	0.0	3.800000e-01	1.000000e-02	0.0	3.900000e-01	1.000000e-02	0.0	4.000000e-01	1.000000e-02	0.0	4.100000e-01	1.000000e-02	0.0	4.200000e-01	1.000000e-02	0.0	4.300000e-01	1.000000e-02	0.0	4.400000e-01	1.000000e-02	0.0	4.500000e-01	1.000000e-02	0.0	4.600000e-01	1.000000e-02	0.0	4.700000e-01	1.000000e-02	0.0	4.800000e-01	1.000000e-02	0.0	4.900000e-01	1.000000e-02	0.0	5.000000e-01	1.000000e-02	0.0	5.100000e-01	1.000000e-02	0.0	5.200000e-01	1.000000e-02	0.0	5.300000e-01	1.000000e-02	0.0	5.400000e-01	1.000000e-02	0.0	5.500000e-01	1.000000e-02	0.0	5.600000e-01	1.000000e-02	0.0	5.700000e-01	1.000000e-02	0.0	5.800000e-01	1.000000e-02	0.0	5.900000e-01	1.000000e-02	0.0	6.000000e-01	1.000000e-02	0.0	6.100000e-01	1.000000e-02	0.0	6.200000e-01	1.000000e-02	0.0	6.300000e-01	1.000000e-02	0.0	6.400000e-01	1.000000e-02	0.0	6.500000e-01	1.000000e-02	0.0	6.600000e-01	1.000000e-02	0.0	6.700000e-01	1.000000e-02	0.0	6.800000e-01	1.000000e-02	0.0	6.900000e-01	1.000000e-02	0.0	7.000000e-01	1.000000e-02	0.0	7.100000e-01	1.000000e-02	0.0	7.200000e-01	1.000000e-02	0.0	7.300000e-01	1.000000e-02	0.0	7.400000e-01	1.000000e-02	0.0	7.500000e-01	1.000000e-02	0.0	7.600000e-01	1.000000e-02	0.0	7.700000e-01	1.000000e-02	0.0	7.800000e-01	1.000000e-02	0.0	7.900000e-01	1.000000e-02	0.0	8.000000e-01	1.000000e-02	0.0	8.100000e-01	1.000000e-02	0.0	8.200000e-01	1.000000e-02	0.0	8.300000e-01	1.000000e-02	0.0	8.400000e-01	1.000000e-02	0.0	8.500000e-01	1.000000e-02	0.0	8.600000e-01	1.000000e-02	0.0	8.700000e-01	1.000000e-02	0.0	8.800000e-01	1.000000e-02	0.0	8.900000e-01	1.000000e-02	0.0	9.000000e-01	1.000000e-02	0.0	9.100000e-01	1.000000e-02	0.0	9.200000e-01	1.000000e-02	0.0	9.300000e-01	1.000000e-02	0.0	9.400000e-01	1.000000e-02	0.0	9.500000e-01	1.000000e-02	0.0	9.600000e-01	1.000000e-02	0.0	9.700000e-01	1.000000e-02	0.0	9.800000e-01	1.000000e-02	0.0	9.900000e-01	1.000000e-02	0.0	1.000000e+00	1.000000e-02	0.0	0.000000e+00	2.000000e-02	0.0	1.000000e-02	2.000000e-02	0.0	2.000000e-02	2.000000e-02	0.0	3.000000e-02	2.000000e-02	0.0	4.000000e-02	2.000000e-02	0.0	5.000000e-02	2.000000e-02	0.0	6.000000e-02	2.000000e-02	0.0	7.000000e-02	2.000000e-02	0.0	8.000000e-02	2.000000e-02	0.0	9.000000e-02	2.000000e-02	0.0	1.000000e-01	2.000000e-02	0.0	1.100000e-01	2.000000e-02	0.0	1.200000e-01	2.000000e-02	0.0	1.300000e-01	2.000000e-02	0.0	1.400000e-01	2.000000e-02	0.0	1.500000e-01	2.000000e-02	0.0	1.600000e-01	2.000000e-02	0.0	1.700000e-01	2.000000e-02	0.0	1.800000e-01	2.000000e-02	0.0	1.900000e-01	2.000000e-02	0.0	2.000000e-01	2.000000e-02	0.0	2.100000e-01	2.000000e-02	0.0	2.200000e-01	2.000000e-02	0.0	2.300000e-01	2.000000e-02	0.0	2.400000e-01	2.000000e-02	0.0	2.500000e-01	2.000000e-02	0.0	2.600000e-01	2.000000e-02	0.0	2.700000e-01	2.000000e-02	0.0	2.800000e-01	2.000000e-02	0.0	2.900000e-01	2.000000e-02	0.0	3.000000e-01	2.000000e-02	0.0	3.100000e-01	2.000000e-02	0.0	3.200000e-01	2.000000e-02	0.0	3.300000e-01	2.000000e-02	0.0	3.400000e-01	2.000000e-02	0.0	3.500000e-01	2.000000e-02	0.0	3.600000e-01	2.000000e-02	0.0	3.700000e-01	2.000000e-02	0.0	3.800000e-01	2.000000e-02	0.0	3.900000e-01	2.000000e-02	0.0	4.000000e-01	2.000000e-02	0.0	4.100000e-01	2.000000e-02	0.0	4.200000e-01	2.000000e-02	0.0	4.300000e-01	2.000000e-02	0.0	4.400000e-01	2.000000e-02	0.0	4.500000e-01	2.000000e-02	0.0	4.600000e-01	2.000000e-02	0.0	4.700000e-01	2.000000e-02	0.0	4.800000e-01	2.000000e-02	0.0	4.900000e-01	2.000000e-02	0.0	5.000000e-01	2.000000e-02	0.0	5.100000e-01	2.000000e-02	0.0	5.200000e-01	2.000000e-02	0.0	5.300000e-01	2.000000e-02	0.0	5.400000e-01	2.000000e-02	0.0	5.500000e-01	2.000000e-02	0.0	5.600000e-01	2.000000e-02	0.0	5.700000e-01	2.000000e-02	0.0	5.800000e-01	2.000000e-02	0.0	5.900000e-01	2.000000e-02	0.0	6.000000e-01	2.000000e-02	0.0	6.100000e-01	2.000000e-02	0.0	6.200000e-01	2.000000e-02	0.0	6.300000e-01	2.000000e-02	0.0	6.400000e-01	2.000000e-02	0.0	6.500000e-01	2.000000e-02	0.0	6.600000e-01	2.000000e-02	0.0	6.700000e-01	2.000000e-02	0.0	6.800000e-01	2.000000e-02	0.0	6.900000e-01	2.000000e-02	0.0	7.000000e-01	2.000000e-02	0.0	7.100000e-01	2.000000e-02	0.0	7.200000e-01	2.000000e-02	0.0	7.300000e-01	2.000000e-02	0.0	7.400000e-01	2.000000e-02	0.0	7.500000e-01	2.000000e-02	0.0	7.600000e-01	2.000000e-02	0.0	7.700000e-01	2.000000e-02	0.0	7.800000e-01	2.000000e-02	0.0	7.900000e-01	2.000000e-02	0.0	8.000000e-01	2.000000e-02	0.0	8.100000e-01	2.000000e-02	0.0	8.200000e-01	2.000000e-02	0.0	8.300000e-01	2.000000e-02	0.0	8.400000e-01	2.000000e-02	0.0	8.500000e-01	2.000000e-02	0.0	8.600000e-01	2.000000e-02	0.0	8.700000e-01	2.000000e-02	0.0	8.800000e-01	2.000000e-02	0.0	8.900000e-01	2.000000e-02	0.0	9.000000e-01	2.000000e-02	0.0	9.100000e-01	2.000000e-02	0.0	9.200000e-01	2.000000e-02	0.0	9.300000e-01	2.000000e-02	0.0	9.400000e-01	2.000000e-02	0.0	9.500000e-01	2.000000e-02	0.0	9.600000e-01	2.000000e-02	0.0	9.700000e-01	2.000000e-02	0.0	9.800000e-01	2.000000e-02	0.0	9.900000e-01	2.000000e-02	0.0	1.000000e+00	2.000000e-02	0.0	0.000000e+00	3.000000e-02	0.0	1.000000e-02	3.000000e-02	0.0	2.000000e-02	3.000000e-02	0.0	3.000000e-02	3.000000e-02	0.0	4.000000e-02	3.000000e-02	0.0	5.000000e-02	3.000000e-02	0.0	6.000000e-02	3.000000e-02	0.0	7.000000e-02	3.000000e-02	0.0	8.000000e-02	3.000000e-02	0.0	9.000000e-02	3.000000e-02	0.0	1.000000e-01	3.000000e-02	0.0	1.100000e-01	3.000000e-02	0.0	1.200000e-01	3.000000e-02	0.0	1.300000e-01	3.000000e-02	0.0	1.400000e-01	3.000000e-02	0.0	1.500000e-01	3.000000e-02	0.0	1.600000e-01	3.000000e-02	0.0	1.700000e-01	3.000000e-02	0.0	1.800000e-01	3.000000e-02	0.0	1.900000e-01	3.000000e-02	0.0	2.000000e-01	3.000000e-02	0.0	2.100000e-01	3.000000e-02	0.0	2.200000e-01	3.000000e-02	0.0	2.300000e-01	3.000000e-02	0.0	2.400000e-01	3.000000e-02	0.0	2.500000e-01	3.000000e-02	0.0	2.600000e-01	3.000000
[...]
POINT_DATA 10201

SCALARS Height double 1
LOOKUP_TABLE default
9.990006e-01	9.990209e-01	9.990131e-01	9.990119e-01	9.990109e-01	9.990086e-01	9.990030e-01	9.989946e-01	9.989879e-01	9.989850e-01	9.989843e-01	9.989842e-01	9.989826e-01	9.989790e-01	9.989735e-01	9.989675e-01	9.989600e-01	9.989556e-01	9.989524e-01	9.989506e-01	9.989476e-01	9.989424e-01	9.989307e-01	9.989154e-01	9.988996e-01	9.988814e-01	9.988636e-01	9.988454e-01	9.988279e-01	9.988114e-01	9.987956e-01	9.987803e-01	9.987648e-01	9.987483e-01	9.987305e-01	9.987107e-01	9.986889e-01	9.986649e-01	9.986389e-01	9.986111e-01	9.985814e-01	9.985497e-01	9.985155e-01	9.984785e-01	9.984382e-01	9.983944e-01	9.983471e-01	9.982963e-01	9.982421e-01	9.981843e-01	9.981221e-01	9.980547e-01	9.979810e-01	9.979001e-01	9.978108e-01	9.977117e-01	9.976012e-01	9.974778e-01	9.973400e-01	9.971854e-01	9.970099e-01	9.968042e-01	9.965508e-01	9.962199e-01	9.957694e-01	9.951512e-01	9.943080e-01	9.932521e-01	9.922152e-01	9.918221e-01	9.931903e-01	9.971564e-01	1.002874e+00	1.007804e+00	1.010561e+00	1.012119e+00	1.013959e+00	1.015936e+00	1.017420e+00	1.018104e+00	1.018197e+00	1.017863e+00	1.016928e+00	1.015257e+00	1.013223e+00	1.011432e+00	1.009872e+00	1.006933e+00	1.001789e+00	9.960089e-01	9.921080e-01	9.908275e-01	9.912521e-01	9.922732e-01	9.932821e-01	9.940644e-01	9.946120e-01	9.949785e-01	9.952089e-01	9.953157e-01	9.953915e-01	9.990138e-01	9.990320e-01	9.990169e-01	9.990148e-01	9.990136e-01	9.990108e-01	9.990054e-01	9.989984e-01	9.989922e-01	9.989884e-01	9.989865e-01	9.989853e-01	9.989829e-01	9.989784e-01	9.989717e-01	9.989639e-01	9.989549e-01	9.989476e-01	9.989427e-01	9.989379e-01	9.989334e-01	9.989296e-01	9.989217e-01	9.989088e-01	9.988936e-01	9.988799e-01	9.988627e-01	9.988449e-01	9.988277e-01	9.988113e-01	9.987957e-01	9.987806e-01	9.987655e-01	9.987494e-01	9.987313e-01	9.987114e-01	9.986893e-01	9.986651e-01	9.986388e-01	9.986107e-01	9.985809e-01	9.985483e-01	9.985136e-01	9.984759e-01	9.984351e-01	9.983907e-01	9.983428e-01	9.982914e-01	9.982366e-01	9.981781e-01	9.981154e-01	9.980475e-01	9.979734e-01	9.978920e-01	9.978022e-01	9.977027e-01	9.975917e-01	9.974678e-01	9.973294e-01	9.971743e-01	9.969981e-01	9.967915e-01	9.965369e-01	9.962038e-01	9.957509e-01	9.951312e-01	9.942813e-01	9.931936e-01	9.920650e-01	9.915543e-01	9.929263e-01	9.971794e-01	1.003146e+00	1.007988e+00	1.010563e+00	1.012085e+00	1.014078e+00	1.016152e+00	1.017533e+00	1.018144e+00	1.018228e+00	1.017909e+00	1.017056e+00	1.015467e+00	1.013306e+00	1.011401e+00	1.009876e+00	1.007133e+00	1.002051e+00	9.960053e-01	9.918408e-01	9.905651e-01	9.911064e-01	9.922166e-01	9.932565e-01	9.940439e-01	9.945936e-01	9.949617e-01	9.951948e-01	9.953011e-01	9.953785e-01	9.990189e-01	9.990376e-01	9.990217e-01	9.990204e-01	9.990192e-01	9.990164e-01	9.990108e-01	9.990028e-01	9.989952e-01	9.989902e-01	9.989874e-01	9.989854e-01	9.989822e-01	9.989771e-01	9.989699e-01	9.989619e-01	9.989516e-01	9.989478e-01	9.989421e-01	9.989377e-01	9.989341e-01	9.989277e-01	9.989222e-01	9.989071e-01	9.988911e-01	9.988738e-01	9.988581e-01	9.988402e-01	9.988233e-01	9.988077e-01	9.987931e-01	9.987789e-01	9.987644e-01	9.987489e-01	9.987316e-01	9.987121e-01	9.986906e-01	9.986672e-01	9.986418e-01	9.986144e-01	9.985848e-01	9.985528e-01	9.985182e-01	9.984808e-01	9.984404e-01	9.983967e-01	9.983492e-01	9.982981e-01	9.982434e-01	9.981848e-01	9.981218e-01	9.980537e-01	9.979795e-01	9.978980e-01	9.978078e-01	9.977079e-01	9.975966e-01	9.974726e-01	9.973341e-01	9.971787e-01	9.970014e-01	9.967925e-01	9.965340e-01	9.961953e-01	9.957339e-01	9.951060e-01	9.942551e-01	9.931716e-01	9.920307e-01	9.915094e-01	9.929703e-01	9.974151e-01	1.003378e+00	1.007991e+00	1.010448e+00	1.011995e+00	1.014023e+00	1.016218e+00	1.017541e+00	1.018032e+00	1.018083e+00	1.017813e+00	1.017083e+00	1.015524e+00	1.013243e+00	1.011307e+00	1.009764e+00	1.007144e+00	1.002289e+00	9.962342e-01	9.918924e-01	9.905312e-01	9.910699e-01	9.921869e-01	9.932245e-01	9.940138e-01	9.945698e-01	9.949454e-01	9.951866e-01	9.952998e-01	9.953786e-01	9.990139e-01	9.990297e-01	9.990177e-01	9.990171e-01	9.990168e-01	9.990146e-01	9.990098e-01	9.990023e-01	9.989945e-01	9.989895e-01	9.989867e-01	9.989847e-01	9.989819e-01	9.989773e-01	9.989704e-01	9.989628e-01	9.989531e-01	9.989480e-01	9.989436e-01	9.989397e-01	9.989365e-01	9.989297e-01	9.989244e-01	9.989084e-01	9.988930e-01	9.988764e-01	9.988589e-01	9.988405e-01	9.988230e-01	9.988071e-01	9.987925e-01	9.987784e-01	9.987637e-01	9.987476e-01	9.987298e-01	9.987102e-01	9.986885e-01	9.986650e-01	9.986396e-01	9.986121e-01	9.985823e-01	9.985499e-01	9.985148e-01	9.984771e-01	9.984366e-01	9.983928e-01	9.983455e-01	9.982944e-01	9.982392e-01	9.981800e-01	9.981163e-01	9.980477e-01	9.979731e-01	9.978912e-01	9.978006e-01	9.977000e-01	9.975880e-01	9.974634e-01	9.973244e-01	9.971682e-01	9.969893e-01	9.967771e-01	9.965129e-01	9.961660e-01	9.956925e-01	9.950501e-01	9.941900e-01	9.931066e-01	9.919572e-01	9.914182e-01	9.929430e-01	9.975196e-01	1.003459e+00	1.007949e+00	1.010365e+00	1.011940e+00	1.014013e+00	1.016377e+00	1.017794e+00	1.018179e+00	1.018161e+00	1.017975e+00	1.017334e+00	1.015654e+00	1.013225e+00	1.011251e+00	1.009678e+00	1.007102e+00	1.002372e+00	9.963292e-01	9.918713e-01	9.904579e-01	9.909981e-01	9.921173e-01	9.931552e-01	9.939533e-01	9.945208e-01	9.949074e-01	9.951571e-01	9.952755e-01	9.953590e-01	9.990122e-01	9.990268e-01	9.990156e-01	9.990158e-01	9.990158e-01	9.990141e-01	9.990098e-01	9.990018e-01	9.989945e-01	9.989883e-01	9.989846e-01	9.989822e-01	9.989791e-01	9.989744e-01	9.989675e-01	9.989596e-01	9.989507e-01	9.989453e-01	9.989413e-01	9.989378e-01	9.989348e-01	9.989277e-01	9.989230e-01	9.989070e-01	9.988916e-01	9.988753e-01	9.988570e-01	9.988382e-01	9.988203e-01	9.988040e-01	9.987892e-01	9.987751e-01	9.987606e-01	9.987446e-01	9.987268e-01	9.987069e-01	9.986853e-01	9.986618e-01	9.986366e-01	9.986093e-01	9.985796e-01	9.985472e-01	9.985120e-01	9.984742e-01	9.984336e-01	9.983901e-01	9.983430e-01	9.982920e-01	9.982365e-01	9.981765e-01	9.981119e-01	9.980425e-01	9.979673e-01	9.978850e-01	9.977939e-01	9.976925e-01	9.975796e-01	9.974541e-01	9.973143e-01	9.971570e-01	9.969756e-01	9.967590e-01	9.964872e-01	9.961290e-01	9.956403e-01	9.949809e-01	9.941084e-01	9.930209e-01	9.918662e-01	9.913378e-01	9.929468e-01	9.976100e-01	1.003494e+00	1.007888e+00	1.010280e+00	1.011888e+00	1.014000e+00	1.016505e+00	1.018101e+00	1.018454e+00	1.018366e+00	1.018259e+00	1.017621e+00	1.015757e+00	1.013209e+00	1.011197e+00	1.009588e+00	1.007030e+00	1.002403e+00	9.964165e-01	9.918797e-01	9.903979e-01	9.909129e-01	9.920256e-01	9.930662e-01	9.938754e-01	9.944582e-01	9.948590e-01	9.951201e-01	9.952448e-01	9.953331e-01	9.990100e-01	9.990237e-01	9.990129e-01	9.990138e-01	9.990139e-01	9.990127e-01	9.990088e-01	9.990007e-01	9.989925e-01	9.989863e-01	9.989821e-01	9.989791e-01	9.989757e-01	9.989709e-01	9.989641e-01	9.989565e-01	9.989480e-01	9.989427e-01	9.989392e-01	9.989361e-01	9.989333e-01	9.989266e-01	9.989214e-01	9.989060e-01	9.988903e-01	9.988742e-01	9.988560e-01	9.988372e-01	9.988192e-01	9.988025e-01	9.987875e-01	9.987729e-01	9.987582e-01	9.987424e-01	9.987246e-01	9.987047e-01	9.986827e-01	9.986589e-01	9.986333e-01	9.986058e-01	9.985759e-01	9.985434e-01	9.985082e-01	9.984702e-01	9.984295e-01	9.983858e-01	9.983385e-01	9.982873e-01	9.982313e-01	9.981706e-01	9.981050e-01	9.980344e-01	9.979583e-01	9.978752e-01	9.977835e-01	9.976814e-01	9.975675e-01	9.974409e-01	9.972999e-01	9.971409e-01	9.969565e-01	9.967342e-01	9.964529e-01	9.960796e-01	9.955733e-01	9.948959e-01	9.940088e-01	9.929051e-01	9.917425e-01	9.912688e-01	9.929964e-01	9.976883e-01	1.003465e+00	1.007780e+00	1.010186e+00	1.011853e+00	1.014017e+00	1.016635e+00	1.018426e+00	1.018857e+00	1.018753e+00	1.018657e+00	1.017922e+00	1.015871e+00	1.013223e+00	1.011154e+00	1.009482e+00	1.006911e+00	1.002367e+00	9.964973e-01	9.919300e-01	9.903477e-01	9.908037e-01	9.919060e-01	9.929570e-01	9.937804e-01	9.943804e-01	9.947976e-01	9.950715e-01	9.952038e-01	9.952978e-01	9.990068e-01	9.990199e-01	9.990105e-01	9.990116e-01	9.990114e-01	9.990105e-01	9.990070e-01	9.989996e-01	9.989908e-01	9.989843e-01	9.989798e-01	9.989766e-01	9.989728e-01	9.989676e-01	9.989609e-01	9.989536e-01	9.989448e-01	9.989396e-01	9.989366e-01	9.989339e-01	9.989308e-01	9.989248e-01	9.989179e-01	9.989032e-01	9.988873e-01	9.988715e-01	9.988536e-01	9.988350e-01	9.988170e-01	9.988003e-01	9.987844e-01	9.987696e-01	9.987548e-01	9.987390e-01	9.987212e-01	9.987012e-01	9.986791e-01	9.986551e-01	9.986292e-01	9.986014e-01	9.985714e-01	9.985390e-01	9.985040e-01	9.984661e-01	9.984254e-01	9.983814e-01	9.983338e-01	9.982821e-01	9.982257e-01	9.981643e-01	9.980977e-01	9.980259e-01	9.979483e-01	9.978639e-01	9.977710e-01	9.976679e-01	9.975530e-01	9.974251e-01	9.972824e-01	9.971206e-01	9.969321e-01	9.967021e-01	9.964090e-01	9.960184e-01	9.954891e-01	9.947883e-01	9.938821e-01	9.927564e-01	9.915917e-01	9.912267e-01	9.930978e-01	9.977522e-01	1.003372e+00	1.007621e+00	1.010079e+00	1.011838e+00	1.014063e+00	1.016774e+00	1.018755e+00	1.019356e+00	1.019306e+00	1.019144e+00	1.018230e+00	1.016003e+00	1.013269e+00	1.011127e+00	1.009354e+00	1.006731e+00	1.002264e+00	9.965662e-01	9.920329e-01	9.903145e-01	9.906730e-01	9.917540e-01	9.928162e-01	9.936601e-01	9.942834e-01	9.947221e-01	9.950113e-01	9.951522e-01	9.952535e-01	9.990000e-01	9.990137e-01	9.990059e-01	9.990084e-01	9.990076e-01	9.990057e-01	9.990027e-01	9.989962e-01	9.989883e-01	9.989822e-01	9.989781e-01	9.989749e-01	9.989708e-01	9.989655e-01	9.989589e-01	9.989520e-01	9.989451e-01	9.989377e-01	9.989357e-01	9.989324e-01	9.989286e-01	9.989242e-01	9.989128e-01	9.988994e-01	9.988845e-01	9.988684e-01	9.988502e-01	9.988317e-01	9.988138e-01	9.987966e-01	9.987806e-01	9.987651e-01	9.987501e-01	9.987342e-01	9.987164e-01	9.986966e-01	9.986745e-01	9.986503e-01	9.986240e-01	9.985957e-01	9.985654e-01	9.985330e-01	9.984981e-01	9.984603e-01	9.984194e-01	9.983751e-01	9.983269e-01	9.982747e-01	9.982179e-01	9.981562e-01	9.980891e-01	9.980163e-01	9.979375e-01	9.978517e-01	9.977575e-01	9.976533e-01	9.975375e-01	9.974082e-01	9.972632e-01	9.970978e-01	9.969032e-01	9.966640e-01	9.963552e-01	9.959442e-01	9.953908e-01	9.946629e-01	9.937239e-01	9.925635e-01	9.914258e-01	9.912247e-01	9.932349e-01	9.977991e-01	1.003221e+00	1.007417e+00	1.009965e+00	1.011842e+00	1.014134e+00	1.016923e+00	1.019102e+00	1.019932e+00	1.019965e+00	1.019703e+00	1.018558e+00	1.016147e+00	1.013339e+00	1.011117e+00	1.009211e+00	1.006500e+00	1.002106e+00	9.966238e-01	9.921765e-01	9.903104e-01	9.905270e-01	9.915627e-01	9.926462e-01	9.935208e-01	9.941709e-01	9.946315e-01	9.949386e-01	9.950899e-01	9.951988e-01	9.989947e-01	9.990108e-01	9.990027e-01	9.990055e-01	9.990047e-01	9.990012e-01	9.989969e-01	9.989908e-01	9.989844e-01	9.989791e-01	9.989757e-01	9.989724e-01	9.989681e-01	9.989625e-01	9.989562e-01	9.989497e-01	9.989432e-01	9.989377e-01	9.989328e-01	9.989320e-01	9.989273e-01	9.989212e-01	9.989096e-01	9.988956e-01	9.988821e-01	9.988650e-01	9.988468e-01	9.988284e-01	9.988105e-01	9.987931e-01	9.987764e-01	9.987606e-01	9.987450e-01	9.987290e-01	9.987111e-01	9.986914e-01	9.986695e-01	9.986451e-01	9.986186e-01	9.985900e-01	9.985594e-01	9.985267e-01	9.984915e-01	9.984534e-01	9.984120e-01	9.983670e-01	9.983181e-01	9.982650e-01	9.982074e-01	9.981451e-01	9.980774e-01	9.980039e-01	9.979240e-01	9.978369e-01	9.977415e-01	9.976364e-01	9.975195e-01	9.973889e-01	9.972414e-01	9.970718e-01	9.968693e-01	9.966183e-01	9.962923e-01	9.958568e-01	9.952749e-01	9.945137e-01	9.935313e-01	9.923346e-01	9.912666e-01	9.912733e-01	9.934098e-01	9.978419e-01	1.003036e+00	1.007184e+00	1.009849e+00	1.011865e+00	1.014223e+00	1.017083e+00	1.019471e+00	1.020566e+00	1.020709e+00	1.020321e+00	1.018908e+00	1.016301e+00	1.013428e+00	1.011125e+00	1.009064e+00	1.006237e+00	1.001912e+00	9.966813e-01	9.923601e-01	9.903506e-01	9.903764e-01	9.913417e-01	9.924409e-01	9.933530e-01	9.940365e-01	9.945240e-01	9.948517e-01	9.950173e-01	9.951339e-01	9.989921e-01	9.990069e-01	9.990005e-01	9.990031e-01	9.990009e-01	9.989958e-01	9.989908e-01	9.989854e-01	9.989799e-01	9.989761e-01	9.989724e-01	9.989693e-01	9.989648e-01	9.989590e-01	9.989529e-01	9.989467e-01	9.989409e-01	9.989361e-01	9.989316e-01	9.989279e-01	9.989239e-01	9.989169e-01	9.989055e-01	9.988944e-01	9.988783e-01	9.988614e-01	9.988434e-01	9.988253e-01	9.988076e-01	9.987900e-01	9.987729e-01	9.987563e-01	9.987401e-01	9.987233e-01	9.987053e-01	9.986856e-01	9.986637e-01	9.986394e-01	9.986128e-01	9.985840e-01	9.985532e-01	9.985200e-01	9.984843e-01	9.984457e-01	9.984037e-01	9.983579e-01	9.983082e-01	9.982541e-01	9.981955e-01	9.981322e-01	9.980635e-01	9.979891e-01	9.979082e-01	9.978199e-01	9.977231e-01	9.976166e-01	9.974984e-01	9.973659e-01	9.972151e-01	9.970399e-01	9.968292e-01	9.965634e-01	9.962163e-01	9.957539e-01	9.951388e-01	9.943338e-01	9.932960e-01	9.920745e-01	9.911276e-01	9.913793e-01	9.936352e-01	9.978903e-01	1.002836e+00	1.006935e+00	1.009733e+00	1.011905e+00	1.014332e+00	1.017256e+00	1.019862e+00	1.021242e+00	1.021508e+00	1.020977e+00	1.019273e+00	1.016466e+00	1.013537e+00	1.011153e+00	1.008919e+00	1.005956e+00	1.001704e+00	9.967489e-01	9.925949e-01	9.904439e-01	9.902299e-01	9.910882e-01	9.921949e-01	9.931524e-01	9.938781e-01	9.943985e-01	9.947505e-01	9.949305e-01	9.950568e-01	9.989902e-01	9.990029e-01	9.989975e-01	9.989996e-01	9.989957e-01	9.989898e-01	9.989842e-01	9.989795e-01	9.989756e-01	9.989723e-01	9.989695e-01	9.989658e-01	9.989614e-01	9.989558e-01	9.989496e-01	9.989438e-01	9.989383e-01	9.989333e-01	9.989284e-01	9.989235e-01	9.989182e-01	9.989107e-01	9.989011e-01	9.988880e-01	9.988732e-01	9.988567e-01	9.988393e-01	9.988217e-01	9.988042e-01	9.987866e-01	9.987692e-01	9.987520e-01	9.987352e-01	9.987181e-01	9.986996e-01	9.986796e-01	9.986575e-01	9.986330e-01	9.986063e-01	9.985773e-01	9.985460e-01	9.985123e-01	9.984758e-01	9.984363e-01	9.983936e-01	9.983472e-01	9.982968e-01	9.982420e-01	9.981826e-01	9.981182e-01	9.980485e-01	9.979730e-01	9.978910e-01	9.978016e-01	9.977035e-01	9.975951e-01	9.974746e-01	9.973389e-01	9.971838e-01	9.970018e-01	9.967796e-01	9.964973e-01	9.961265e-01	9.956329e-01	9.949766e-01	9.941159e-01	9.930166e-01	9.917943e-01	9.910230e-01	9.915387e-01	9.939021e-01	9.979456e-01	1.002635e+00	1.006681e+00	1.009624e+00	1.011964e+00	1.014463e+00	1.017451e+00	1.020266e+00	1.021938e+00	1.022329e+00	1.021641e+00	1.019643e+00	1.016648e+00	1.013670e+00	1.011200e+00	1.008779e+00	1.005673e+00	1.001495e+00	9.968191e-01	9.928746e-01	9.905922e-01	9.901026e-01	9.908083e-01	9.919063e-01	9.929143e-01	9.936918e-01	9.942521e-01	9.946329e-01	9.948297e-01	9.949657e-01	9.989881e-01	9.989983e-01	9.989930e-01	9.989944e-01	9.989895e-01	9.989831e-01	9.989774e-01	9.989740e-01	9.989711e-01	9.989685e-01	9.989656e-01	9.989624e-01	9.989579e-01	9.989530e-01	9.989478e-01	9.989420e-01	9.989367e-01	9.989314e-01	9.989258e-01	9.989207e-01	9.989139e-01	9.989055e-01	9.988944e-01	9.988820e-01	9.988672e-01	9.988515e-01	9.988346e-01	9.988179e-01	9.988001e-01	9.987822e-01	9.987646e-01	9.987471e-01	9.987299e-01	9.987128e-01	9.986937e-01	9.986734e-01	9.986509e-01	9.986262e-01	9.985992e-01	9.985698e-01	9.985379e-01	9.985032e-01	9.984658e-01	9.984253e-01	9.983816e-01	9.983344e-01	9.982833e-01	9.982279e-01	9.981679e-01	9.981028e-01	9.980322e-01	9.979557e-01	9.978726e-01	9.977820e-01	9.976824e-01	9.975720e-01	9.974483e-01	9.973085e-01	9.971477e-01	9.969570e-01	9.967217e-01	9.964195e-01	9.960210e-01	9.954899e-01	9.947821e-01	9.938544e-01	9.926932e-01	9.915054e-01	9.909750e-01	9.917696e-01	9.941944e-01	9.980138e-01	1.002450e+00	1.006439e+00	1.009528e+00	1.012044e+00	1.014624e+00	1.017663e+00	1.020672e+00	1.022622e+00	1.023133e+00	1.022291e+00	1.020010e+00	1.016851e+00	1.013834e+00	1.011264e+00	1.008651e+00	1.005402e+00	1.001299e+00	9.969007e-01	9.931843e-01	9.908020e-01	9.900164e-01	9.905109e-01	9.915737e-01	9.926343e-01	9.934736e-01	9.940823e-01	9.944972e-01	9.947133e-01	9.948603e-01	9.989839e-01	9.989927e-01	9.989865e-01	9.989874e-01	9.989822e-01	9.989760e-01	9.989711e-01	9.989683e-01	9.989660e-01	9.989643e-01	9.989615e-01	9.989583e-01	9.989547e-01	9.989501e-01	9.989455e-01	9.989407e-01	9.989346e-01	9.989285e-01	9.989218e-01	9.989142e-01	9.989061e-01	9.988977e-01	9.988875e-01	9.988750e-01	9.988609e-01	9.988458e-01	9.988298e-01	9.988124e-01	9.987945e-01	9.987763e-01	9.987582e-01	9.987408e-01	9.987237e-01	9.987060e-01	9.986871e-01	9.986665e-01	9.986438e-01	9.986188e-01	9.985915e-01	9.985615e-01	9.985289e-01	9.984934e-01	9.984549e-01	9.984134e-01	9.983685e-01	9.983201e-01	9.982680e-01	9.982119e-01	9.981512e-01	9.980855e-01	9.980141e-01	9.979367e-01	9.978524e-01	9.977603e-01	9.976588e-01	9.975458e-01	9.974186e-01	9.972740e-01	9.971063e-01	9.969053e-01	9.966544e-01	9.963290e-01	9.958979e-01	9.953212e-01	9.945501e-01	9.935440e-01	9.923262e-01	9.912300e-01	9.910057e-01	9.920679e-01	9.945003e-01	9.981047e-01	1.002295e+00	1.006227e+00	1.009449e+00	1.012147e+00	1.014818e+00	1.017890e+00	1.021059e+00	1.023261e+00	1.023875e+00	1.022890e+00	1.020358e+00	1.017074e+00	1.014029e+00	1.011343e+00	1.008545e+00	1.005164e+00	1.001138e+00	9.970008e-01	9.935076e-01	9.910939e-01	9.900023e-01	9.902118e-01	9.911955e-01	9.923065e-01	9.932192e-01	9.938867e-01	9.943423e-01	9.945802e-01	9.947395e-01	9.989782e-01	9.989859e-01	9.989784e-01	9.989792e-01	9.989744e-01	9.989691e-01	9.989650e-01	9.989630e-01	9.989611e-01	9.989588e-01	9.989567e-01	9.989540e-01	9.989508e-01	9.989472e-01	9.989428e-01	9.989381e-01	9.989321e-01	9.989251e-01	9.989172e-01	9.989085e-01	9.988990e-01	9.988900e-01	9.988798e-01	9.988679e-01	9.988544e-01	9.988401e-01	9.988237e-01	9.988065e-01	9.987880e-01	9.987694e-01	9.987514e-01	9.987330e-01	9.987154e-01	9.986978e-01	9.986789e-01	9.986582e-01	9.986354e-01	9.986102e-01	9.985825e-01	9.985520e-01	9.985188e-01	9.984827e-01	9.984434e-01	9.984009e-01	9.983549e-01	9.983053e-01	9.982521e-01	9.981949e-01	9.981333e-01	9.980668e-01	9.979946e-01	9.979161e-01	9.978304e-01	9.977362e-01	9.976318e-01	9.975153e-01	9.973841e-01	9.972342e-01	9.970588e-01	9.968458e-01	9.965763e-01	9.962237e-01	9.957537e-01	9.951218e-01	9.942737e-01	9.931771e-01	9.919251e-01	9.910036e-01	9.911161e-01	9.924009e-01	9.948156e-01	9.982326e-01	1.002204e+00	1.006068e+00	1.009405e+00	1.012272e+00	1.015043e+00	1.018125e+00	1.021399e+00	1.023815e+00	1.024522e+00	1.023408e+00	1.020676e+00	1.017319e+00	1.014251e+00	1.011444e+00	1.008471e+00	1.004983e+00	1.001043e+00	9.971347e-01	9.938321e-01	9.914325e-01	9.900822e-01	9.899374e-01	9.907724e-01	9.919218e-01	9.929208e-01	9.936611e-01	9.941663e-01	9.944292e-01	9.946022e-01	9.989712e-01	9.989788e-01	9.989693e-01	9.989705e-01	9.989664e-01	9.989625e-01	9.989592e-01	9.989578e-01	9.989561e-01	9.989536e-01	9.989510e-01	9.989494e-01	9.989468e-01	9.989436e-01	9.989393e-01	9.989344e-01	9.989285e-01	9.989203e-01	9.989111e-01	9.989010e-01	9.988903e-01	9.988809e-01	9.988712e-01	9.988598e-01	9.988475e-01	9.988330e-01	9.988171e-01	9.987999e-01	9.987825e-01	9.987628e-01	9.987437e-01	9.987249e-01	9.987067e-01	9.986885e-01	9.986695e-01	9.986488e-01	9.986257e-01	9.986001e-01	9.985718e-01	9.985408e-01	9.985071e-01	9.984704e-01	9.984306e-01	9.983874e-01	9.983405e-01	9.982899e-01	9.982357e-01	9.981775e-01	9.981150e-01	9.980475e-01	9.979742e-01	9.978943e-01	9.978065e-01	9.977094e-01	9.976014e-01	9.974806e-01	9.973446e-01	9.971889e-01	9.970045e-01	9.967773e-01	9.964858e-01	9.961007e-01	9.955835e-01	9.948838e-01	9.939411e-01	9.927476e-01	9.915159e-01	9.908842e-01	9.913095e-01	9.927417e-01	9.951472e-01	9.984146e-01	1.002183e+00	1.005979e+00	1.009406e+00	1.012422e+00	1.015290e+00	1.018370e+00	1.021679e+00	1.024245e+00	1.025021e+00	1.023807e+00	1.020949e+00	1.017581e+00	1.014497e+00	1.011570e+00	1.008438e+00	1.004883e+00	1.001020e+00	9.973195e-01	9.941657e-01	9.917788e-01	9.902383e-01	9.897410e-01	9.903257e-01	9.914698e-01	9.925647e-01	9.933965e-01	9.939638e-01	9.942567e-01	9.944454e-01	9.989652e-01	9.989714e-01	9.989595e-01	9.989618e-01	9.989586e-01	9.989561e-01	9.989537e-01	9.989526e-01	9.989508e-01	9.989482e-01	9.989454e-01	9.989438e-01	9.989423e-01	9.989391e-01	9.989351e-01	9.989284e-01	9.989229e-01	9.989154e-01	9.989041