# vtk DataFile Version 3.0
vtk output
ASCII
DATASET STRUCTURED_GRID
DIMENSIONS 101 101 1
POINTS 10201 double
0.000000e+00	0.000000e+00	0.0	1.000000e-02	0.000000e+00	0.0	2.000000e-02	0.000000e+00	0.0	3.000000e-02	0.000000e+00	0.0	4.000000e-02	0.000000e+00	0.0	5.000000e-02	0.000000e+00	0.0	6.000000e-02	0.000000e+00	0.0	7.000000e-02	0.000000e+00	0.0	8.000000e-02	0.000000e+00	0.0	9.000000e-02	0.000000e+00	0.0	1.000000e-01	0.000000e+00	0.0	1.100000e-01	0.000000e+00	0.0	1.200000e-01	0.000000e+00	0.0	1.300000e-01	0.000000e+00	0.0	1.400000e-01	0.000000e+00	0.0	1.500000e-01	0.000000e+00	0.0	1.600000e-01	0.000000e+00	0.0	1.700000e-01	0.000000e+00	0.0	1.800000e-01	0.000000e+00	0.0	1.900000e-01	0.000000e+00	0.0	2.000000e-01	0.000000e+00	0.0	2.100000e-01	0.000000e+00	0.0	2.200000e-01	0.000000e+00	0.0	2.300000e-01	0.000000e+00	0.0	2.400000e-01	0.000000e+00	0.0	2.500000e-01	0.000000e+00	0.0	2.600000e-01	0.000000e+00	0.0	2.700000e-01	0.000000e+00	0.0	2.800000e-01	0.000000e+00	0.0	2.900000e-01	0.000000e+00	0.0	3.000000e-01	0.000000e+00	0.0	3.100000e-01	0.000000e+00	0.0	3.200000e-01	0.000000e+00	0.0	3.300000e-01	0.000000e+00	0.0	3.400000e-01	0.000000e+00	0.0	3.500000e-01	0.000000e+00	0.0	3.600000e-01	0.000000e+00	0.0	3.700000e-01	0.000000e+00	0.0	3.800000e-01	0.000000e+00	0.0	3.900000e-01	0.000000e+00	0.0	4.000000e-01	0.000000e+00	0.0	4.100000e-01	0.000000e+00	0.0	4.200000e-01	0.000000e+00	0.0	4.300000e-01	0.000000e+00	0.0	4.400000e-01	0.000000e+00	0.0	4.500000e-01	0.000000e+00	0.0	4.600000e-01	0.000000e+00	0.0	4.700000e-01	0.000000e+00	0.0	4.800000e-01	0.000000e+00	0.0	4.900000e-01	0.000000e+00	0.0	5.000000e-01	0.000000e+00	0.0	5.100000e-01	0.000000e+00	0.0	5.200000e-01	0.000000e+00	0.0	5.300000e-01	0.000000e+00	0.0	5.400000e-01	0.000000e+00	0.0	5.500000e-01	0.000000e+00	0.0	5.600000e-01	0.000000e+00	0.0	5.700000e-01	0.000000e+00	0.0	5.800000e-01	0.000000e+00	0.0	5.900000e-01	0.000000e+00	0.0	6.000000e-01	0.000000e+00	0.0	6.100000e-01	0.000000e+00	0.0	6.200000e-01	0.000000e+00	0.0	6.300000e-01	0.000000e+00	0.0	6.400000e-01	0.000000e+00	0.0	6.500000e-01	0.000000e+00	0.0	6.600000e-01	0.000000e+00	0.0	6.700000e-01	0.000000e+00	0.0	6.800000e-01	0.000000e+00	0.0	6.900000e-01	0.000000e+00	0.0	7.000000e-01	0.000000e+00	0.0	7.100000e-01	0.000000e+00	0.0	7.200000e-01	0.000000e+00	0.0	7.300000e-01	0.000000e+00	0.0	7.400000e-01	0.000000e+00	0.0	7.500000e-01	0.000000e+00	0.0	7.600000e-01	0.000000e+00	0.0	7.700000e-01	0.000000e+00	0.0	7.800000e-01	0.000000e+00	0.0	7.900000e-01	0.000000e+00	0.0	8.000000e-01	0.000000e+00	0.0	8.100000e-01	0.000000e+00	0.0	8.200000e-01	0.000000e+00	0.0	8.300000e-01	0.000000e+00	0.0	8.400000e-01	0.000000e+00	0.0	8.500000e-01	0.000000e+00	0.0	8.600000e-01	0.000000e+00	0.0	8.700000e-01	0.000000e+00	0.0	8.800000e-01	0.000000e+00	0.0	8.900000e-01	0.000000e+00	0.0	9.000000e-01	0.000000e+00	0.0	9.100000e-01	0.000000e+00	0.0	9.200000e-01	0.000000e+00	0.0	9.300000e-01	0.000000e+00	0.0	9.400000e-01	0.000000e+00	0.0	9.500000e-01	0.000000e+00	0.0	9.600000e-01	0.000000e+00	0.0	9.700000e-01	0.000000e+00	0.0	9.800000e-01	0.000000e+00	0.0	9.900000e-01	0.000000e+00	0.0	1.000000e+00	0.000000e+00	0.0	0.000000e+00	1.000000e-02	0.0	1.000000e-02	1.000000e-02	0.0	2.000000e-02	1.000000e-02	0.0	3.000000e-02	1.000000e-02	0.0	4.000000e-02	1.000000e-02	0.0	5.000000e-02	1.000000e-02	0.0	6.000000e-02	1.000000e-02	0.0	7.000000e-02	1.000000e-02	0.0	8.000000e-02	1.000000e-02	0.0	9.000000e-02	1.000000e-02	0.0	1.000000e-01	1.000000e-02	0.0	1.100000e-01	1.000000e-02	0.0	1.200000e-01	1.000000e-02	0.0	1.300000e-01	1.000000e-02	0.0	1.400000e-01	1.000000e-02	0.0	1.500000e-01	1.000000e-02	0.0	1.600000e-01	1.000000e-02	0.0	1.700000e-01	1.000000e-02	0.0	1.800000e-01	1.000000e-02	0.0	1.900000e-01	1.000000e-02	0.0	2.000000e-01	1.000000e-02	0.0	2.100000e-01	1.000000e-02	0.0	2.200000e-01	1.000000e-02	0.0	2.300000e-01	1.000000e-02	0.0	2.400000e-01	1.000000e-02	0.0	2.500000e-01	1.000000e-02	0.0	2.600000e-01	1.000000e-02	0.0	2.700000e-01	1.000000e-02	0.0	2.800000e-01	1.000000e-02	0.0	2.900000e-01	1.000000e-02	0.0	3.000000e-01	1.000000e-02	0.0	3.100000e-01	1.000000e-02	0.0	3.200000e-01	1.000000e-02	0.0	3.300000e-01	1.000000e-02	0.0	3.400000e-01	1.000000e-02	0.0	3.500000e-01	1.000000e-02	0.0	3.600000e-01	1.000000e-02	0.0	3.700000e-01	1.000000e-02	0.0	3.800000e-01	1.000000e-02	0.0	3.900000e-01	1.000000e-02	0.0	4.000000e-01	1.000000e-02	0.0	4.100000e-01	1.000000e-02	0.0	4.200000e-01	1.000000e-02	0.0	4.300000e-01	1.000000e-02	0.0	4.400000e-01	1.000000e-02	0.0	4.500000e-01	1.000000e-02	0.0	4.600000e-01	1.000000e-02	0.0	4.700000e-01	1.000000e-02	0.0	4.800000e-01	1.000000e-02	0.0	4.900000e-01	1.000000e-02	0.0	5.000000e-01	1.000000e-02	0.0	5.100000e-01	1.000000e-02	0.0	5.200000e-01	1.000000e-02	0.0	5.300000e-01	1.000000e-02	0.0	5.400000e-01	1.000000e-02	0.0	5.500000e-01	1.000000e-02	0.0	5.600000e-01	1.000000e-02	0.0	5.700000e-01	1.000000e-02	0.0	5.800000e-01	1.000000e-02	0.0	5.900000e-01	1.000000e-02	0.0	6.000000e-01	1.000000e-02	0.0	6.100000e-01	1.000000e-02	0.0	6.200000e-01	1.000000e-02	0.0	6.300000e-01	1.000000e-02	0.0	6.400000e-01	1.000000e-02	0.0	6.500000e-01	1.000000e-02	0.0	6.600000e-01	1.000000e-02	0.0	6.700000e-01	1.000000e-02	0.0	6.800000e-01	1.000000e-02	0.0	6.900000e-01	1.000000e-02	0.0	7.000000e-01	1.000000e-02	0.0	7.100000e-01	1.000000e-02	0.0	7.200000e-01	1.000000e-02	0.0	7.300000e-01	1.000000e-02	0.0	7.400000e-01	1.000000e-02	0.0	7.500000e-01	1.000000e-02	0.0	7.600000e-01	1.000000e-02	0.0	7.700000e-01	1.000000e-02	0.0	7.800000e-01	1.000000e-02	0.0	7.900000e-01	1.000000e-02	0.0	8.000000e-01	1.000000e-02	0.0	8.100000e-01	1.000000e-02	0.0	8.200000e-01	1.000000e-02	0.0	8.300000e-01	1.000000e-02	0.0	8.400000e-01	1.000000e-02	0.0	8.500000e-01	1.000000e-02	0.0	8.600000e-01	1.000000e-02	0.0	8.700000e-01	1.000000e-02	0.0	8.800000e-01	1.000000e-02	0.0	8.900000e-01	1.000000e-02	0.0	9.000000e-01	1.000000e-02	0.0	9.100000e-01	1.000000e-02	0.0	9.200000e-01	1.000000e-02	0.0	9.300000e-01	1.000000e-02	0.0	9.400000e-01	1.000000e-02	0.0	9.500000e-01	1.000000e-02	0.0	9.600000e-01	1.000000e-02	0.0	9.700000e-01	1.000000e-02	0.0	9.800000e-01	1.000000e-02	0.0	9.900000e-01	1.000000e-02	0.0	1.000000e+00	1.000000e-02	0.0	0.000000e+00	2.000000e-02	0.0	1.000000e-02	2.000000e-02	0.0	2.000000e-02	2.000000e-02	0.0	3.000000e-02	2.000000e-02	0.0	4.000000e-02	2.000000e-02	0.0	5.000000e-02	2.000000e-02	0.0	6.000000e-02	2.000000e-02	0.0	7.000000e-02	2.000000e-02	0.0	8.000000e-02	2.000000e-02	0.0	9.000000e-02	2.000000e-02	0.0	1.000000e-01	2.000000e-02	0.0	1.100000e-01	2.000000e-02	0.0	1.200000e-01	2.000000e-02	0.0	1.300000e-01	2.000000e-02	0.0	1.400000e-01	2.000000e-02	0.0	1.500000e-01	2.000000e-02	0.0	1.600000e-01	2.000000e-02	0.0	1.700000e-01	2.000000e-02	0.0	1.800000e-01	2.000000e-02	0.0	1.900000e-01	2.000000e-02	0.0	2.000000e-01	2.000000e-02	0.0	2.100000e-01	2.000000e-02	0.0	2.200000e-01	2.000000e-02	0.0	2.300000e-01	2.000000e-02	0.0	2.400000e-01	2.000000e-02	0.0	2.500000e-01	2.000000e-02	0.0	2.600000e-01	2.000000e-02	0.0	2.700000e-01	2.000000e-02	0.0	2.800000e-01	2.000000e-02	0.0	2.900000e-01	2.000000e-02	0.0	3.000000e-01	2.000000e-02	0.0	3.100000e-01	2.000000e-02	0.0	3.200000e-01	2.000000e-02	0.0	3.300000e-01	2.000000e-02	0.0	3.400000e-01	2.000000e-02	0.0	3.500000e-01	2.000000e-02	0.0	3.600000e-01	2.000000e-02	0.0	3.700000e-01	2.000000e-02	0.0	3.800000e-01	2.000000e-02	0.0	3.900000e-01	2.000000e-02	0.0	4.000000e-01	2.000000e-02	0.0	4.100000e-01	2.000000e-02	0.0	4.200000e-01	2.000000e-02	0.0	4.300000e-01	2.000000e-02	0.0	4.400000e-01	2.000000e-02	0.0	4.500000e-01	2.000000e-02	0.0	4.600000e-01	2.000000e-02	0.0	4.700000e-01	2.000000e-02	0.0	4.800000e-01	2.000000e-02	0.0	4.900000e-01	2.000000e-02	0.0	5.000000e-01	2.000000e-02	0.0	5.100000e-01	2.000000e-02	0.0	5.200000e-01	2.000000e-02	0.0	5.300000e-01	2.000000e-02	0.0	5.400000e-01	2.000000e-02	0.0	5.500000e-01	2.000000e-02	0.0	5.600000e-01	2.000000e-02	0.0	5.700000e-01	2.000000e-02	0.0	5.800000e-01	2.000000e-02	0.0	5.900000e-01	2.000000e-02	0.0	6.000000e-01	2.000000e-02	0.0	6.100000e-01	2.000000e-02	0.0	6.200000e-01	2.000000e-02	0.0	6.300000e-01	2.000000e-02	0.0	6.400000e-01	2.000000e-02	0.0	6.500000e-01	2.000000e-02	0.0	6.600000e-01	2.000000e-02	0.0	6.700000e-01	2.000000e-02	0.0	6.800000e-01	2.000000e-02	0.0	6.900000e-01	2.000000e-02	0.0	7.000000e-01	2.000000e-02	0.0	7.100000e-01	2.000000e-02	0.0	7.200000e-01	2.000000e-02	0.0	7.300000e-01	2.000000e-02	0.0	7.400000e-01	2.000000e-02	0.0	7.500000e-01	2.000000e-02	0.0	7.600000e-01	2.000000e-02	0.0	7.700000e-01	2.000000e-02	0.0	7.800000e-01	2.000000e-02	0.0	7.900000e-01	2.000000e-02	0.0	8.000000e-01	2.000000e-02	0.0	8.100000e-01	2.000000e-02	0.0	8.200000e-01	2.000000e-02	0.0	8.300000e-01	2.000000e-02	0.0	8.400000e-01	2.000000e-02	0.0	8.500000e-01	2.000000e-02	0.0	8.600000e-01	2.000000e-02	0.0	8.700000e-01	2.000000e-02	0.0	8.800000e-01	2.000000e-02	0.0	8.900000e-01	2.000000e-02	0.0	9.000000e-01	2.000000e-02	0.0	9.100000e-01	2.000000e-02	0.0	9.200000e-01	2.000000e-02	0.0	9.300000e-01	2.000000e-02	0.0	9.400000e-01	2.000000e-02	0.0	9.500000e-01	2.000000e-02	0.0	9.600000e-01	2.000000e-02	0.0	9.700000e-01	2.000000e-02	0.0	9.800000e-01	2.000000e-02	0.0	9.900000e-01	2.000000e-02	0.0	1.000000e+00	2.000000e-02	0.0	0.000000e+00	3.000000e-02	0.0	1.000000e-02	3.000000e-02	0.0	2.000000e-02	3.000000e-02	0.0	3.000000e-02	3.000000e-02	0.0	4.000000e-02	3.000000e-02	0.0	5.000000e-02	3.000000e-02	0.0	6.000000e-02	3.000000e-02	0.0	7.000000e-02	3.000000e-02	0.0	8.000000e-02	3.000000e-02	0.0	9.000000e-02	3.000000e-02	0.0	1.000000e-01	3.000000e-02	0.0	1.100000e-01	3.000000e-02	0.0	1.200000e-01	3.000000e-02	0.0	1.300000e-01	3.000000e-02	0.0	1.400000e-01	3.000000e-02	0.0	1.500000e-01	3.000000e-02	0.0	1.600000e-01	3.000000e-02	0.0	1.700000e-01	3.000000e-02	0.0	1.800000e-01	3.000000e-02	0.0	1.900000e-01	3.000000e-02	0.0	2.000000e-01	3.000000e-02	0.0	2.100000e-01	3.000000e-02	0.0	2.200000e-01	3.000000e-02	0.0	2.300000e-01	3.000000e-02	0.0	2.400000e-01	3.000000e-02	0.0	2.500000e-01	3.000000e-02	0.0	2.600000e-01	3.000000
[...]
POINT_DATA 10201

SCALARS Height double 1
LOOKUP_TABLE default
9.917715e-01	9.916890e-01	9.916721e-01	9.915202e-01	9.913277e-01	9.910721e-01	9.907516e-01	9.903521e-01	9.897759e-01	9.888519e-01	9.873364e-01	9.851143e-01	9.823334e-01	9.794743e-01	9.771105e-01	9.755897e-01	9.750130e-01	9.753526e-01	9.773268e-01	9.813364e-01	9.872363e-01	9.950576e-01	1.004543e+00	1.014822e+00	1.024529e+00	1.032382e+00	1.037685e+00	1.040135e+00	1.039989e+00	1.034953e+00	1.023020e+00	1.009754e+00	1.001371e+00	9.978776e-01	9.967457e-01	9.964223e-01	9.963248e-01	9.962723e-01	9.962065e-01	9.960988e-01	9.959409e-01	9.957389e-01	9.955020e-01	9.952323e-01	9.949238e-01	9.945677e-01	9.941553e-01	9.936756e-01	9.930687e-01	9.921899e-01	9.907876e-01	9.886384e-01	9.857948e-01	9.827314e-01	9.801030e-01	9.783187e-01	9.775448e-01	9.776633e-01	9.792926e-01	9.829758e-01	9.886448e-01	9.963717e-01	1.005971e+00	1.016568e+00	1.026682e+00	1.034922e+00	1.040547e+00	1.043313e+00	1.043425e+00	1.038929e+00	1.027238e+00	1.013535e+00	1.004809e+00	1.001344e+00	1.000326e+00	1.000074e+00	1.000017e+00	1.000004e+00	1.000001e+00	1.000000e+00	1.000000e+00	1.000000e+00	1.000000e+00	1.000000e+00	1.000000e+00	1.000000e+00	1.000000e+00	1.000000e+00	1.000000e+00	1.000000e+00	1.000000e+00	1.000000e+00	1.000000e+00	1.000000e+00	1.000000e+00	1.000000e+00	1.000000e+00	1.000000e+00	1.000000e+00	1.000000e+00	1.000000e+00	9.916890e-01	9.915944e-01	9.915861e-01	9.914312e-01	9.912346e-01	9.909732e-01	9.906436e-01	9.902167e-01	9.895938e-01	9.886115e-01	9.870356e-01	9.847799e-01	9.819983e-01	9.791167e-01	9.767120e-01	9.753858e-01	9.751254e-01	9.755015e-01	9.774725e-01	9.815911e-01	9.876266e-01	9.954812e-01	1.004934e+00	1.015173e+00	1.024950e+00	1.033111e+00	1.038398e+00	1.040048e+00	1.039660e+00	1.034893e+00	1.023265e+00	1.009374e+00	1.000700e+00	9.974832e-01	9.965947e-01	9.963636e-01	9.962894e-01	9.962411e-01	9.961736e-01	9.960620e-01	9.958985e-01	9.956900e-01	9.954460e-01	9.951688e-01	9.948528e-01	9.944903e-01	9.940714e-01	9.935717e-01	9.929259e-01	9.919818e-01	9.905140e-01	9.883208e-01	9.854649e-01	9.823757e-01	9.797108e-01	9.781030e-01	9.776673e-01	9.778486e-01	9.794801e-01	9.832637e-01	9.890678e-01	9.968395e-01	1.006401e+00	1.016950e+00	1.027122e+00	1.035655e+00	1.041363e+00	1.043311e+00	1.043095e+00	1.038845e+00	1.027555e+00	1.013266e+00	1.004173e+00	1.000951e+00	1.000186e+00	1.000037e+00	1.000008e+00	1.000002e+00	1.000001e+00	1.000000e+00	1.000000e+00	1.000000e+00	1.000000e+00	1.000000e+00	1.000000e+00	1.000000e+00	1.000000e+00	1.000000e+00	1.000000e+00	1.000000e+00	1.000000e+00	1.000000e+00	1.000000e+00	1.000000e+00	1.000000e+00	1.000000e+00	1.000000e+00	1.000000e+00	1.000000e+00	1.000000e+00	1.000000e+00	9.916721e-01	9.915861e-01	9.915772e-01	9.914186e-01	9.912226e-01	9.909620e-01	9.906127e-01	9.901235e-01	9.893891e-01	9.882823e-01	9.866506e-01	9.844830e-01	9.819248e-01	9.793244e-01	9.772843e-01	9.762909e-01	9.760541e-01	9.764388e-01	9.782877e-01	9.823424e-01	9.884158e-01	9.959957e-01	1.004916e+00	1.014683e+00	1.024404e+00	1.032570e+00	1.037147e+00	1.038360e+00	1.037849e+00	1.033554e+00	1.023177e+00	1.010624e+00	1.001897e+00	9.980078e-01	9.967376e-01	9.963956e-01	9.962886e-01	9.962283e-01	9.961577e-01	9.960481e-01	9.958883e-01	9.956826e-01	9.954388e-01	9.951594e-01	9.948421e-01	9.944794e-01	9.940539e-01	9.935125e-01	9.927709e-01	9.916831e-01	9.901000e-01	9.879340e-01	9.852891e-01	9.825295e-01	9.802740e-01	9.790103e-01	9.786070e-01	9.788113e-01	9.803217e-01	9.840538e-01	9.899260e-01	9.974408e-01	1.006450e+00	1.016462e+00	1.026537e+00	1.035145e+00	1.040193e+00	1.041624e+00	1.041254e+00	1.037390e+00	1.027393e+00	1.014636e+00	1.005405e+00	1.001400e+00	1.000277e+00	1.000047e+00	1.000008e+00	1.000002e+00	1.000000e+00	1.000000e+00	1.000000e+00	1.000000e+00	1.000000e+00	1.000000e+00	1.000000e+00	1.000000e+00	1.000000e+00	1.000000e+00	1.000000e+00	1.000000e+00	1.000000e+00	1.000000e+00	1.000000e+00	1.000000e+00	1.000000e+00	1.000000e+00	1.000000e+00	1.000000e+00	1.000000e+00	1.000000e+00	1.000000e+00	9.915202e-01	9.914312e-01	9.914186e-01	9.912594e-01	9.910595e-01	9.907869e-01	9.903940e-01	9.897946e-01	9.888947e-01	9.875711e-01	9.858096e-01	9.836726e-01	9.813645e-01	9.792970e-01	9.778823e-01	9.771658e-01	9.771416e-01	9.777115e-01	9.798196e-01	9.839630e-01	9.899353e-01	9.972877e-01	1.005682e+00	1.015011e+00	1.024545e+00	1.032135e+00	1.035805e+00	1.036442e+00	1.035630e+00	1.031102e+00	1.021888e+00	1.011404e+00	1.003306e+00	9.988108e-01	9.970081e-01	9.964344e-01	9.962563e-01	9.961683e-01	9.960832e-01	9.959669e-01	9.958040e-01	9.955954e-01	9.953455e-01	9.950591e-01	9.947342e-01	9.943601e-01	9.938964e-01	9.932724e-01	9.923578e-01	9.910464e-01	9.892489e-01	9.870336e-01	9.846309e-01	9.824372e-01	9.808227e-01	9.798928e-01	9.797201e-01	9.800884e-01	9.818554e-01	9.857002e-01	9.915286e-01	9.988713e-01	1.007342e+00	1.016835e+00	1.026706e+00	1.034827e+00	1.038917e+00	1.039732e+00	1.039059e+00	1.034917e+00	1.026036e+00	1.015443e+00	1.006964e+00	1.002257e+00	1.000514e+00	1.000089e+00	1.000014e+00	1.000002e+00	1.000001e+00	1.000000e+00	1.000000e+00	1.000000e+00	1.000000e+00	1.000000e+00	1.000000e+00	1.000000e+00	1.000000e+00	1.000000e+00	1.000000e+00	1.000000e+00	1.000000e+00	1.000000e+00	1.000000e+00	1.000000e+00	1.000000e+00	1.000000e+00	1.000000e+00	1.000000e+00	1.000000e+00	1.000000e+00	1.000000e+00	9.913277e-01	9.912346e-01	9.912226e-01	9.910595e-01	9.908451e-01	9.905253e-01	9.900322e-01	9.892635e-01	9.881228e-01	9.865734e-01	9.846997e-01	9.827103e-01	9.809197e-01	9.795760e-01	9.786831e-01	9.784114e-01	9.785546e-01	9.793937e-01	9.818276e-01	9.861565e-01	9.920072e-01	9.989396e-01	1.006761e+00	1.015535e+00	1.024437e+00	1.030964e+00	1.033704e+00	1.033958e+00	1.032768e+00	1.028077e+00	1.020306e+00	1.012093e+00	1.005063e+00	1.000069e+00	9.974759e-01	9.965239e-01	9.962198e-01	9.960885e-01	9.959832e-01	9.958579e-01	9.956917e-01	9.954810e-01	9.952268e-01	9.949333e-01	9.945956e-01	9.941875e-01	9.936404e-01	9.928537e-01	9.916976e-01	9.900769e-01	9.880799e-01	9.859838e-01	9.841218e-01	9.826697e-01	9.816057e-01	9.811430e-01	9.811686e-01	9.817646e-01	9.838631e-01	9.879577e-01	9.937405e-01	1.000708e+00	1.008579e+00	1.017459e+00	1.026678e+00	1.033721e+00	1.036918e+00	1.037265e+00	1.036275e+00	1.031899e+00	1.024312e+00	1.016096e+00	1.008876e+00	1.003617e+00	1.000987e+00	1.000186e+00	1.000028e+00	1.000004e+00	1.000001e+00	1.000000e+00	1.000000e+00	1.000000e+00	1.000000e+00	1.000000e+00	1.000000e+00	1.000000e+00	1.000000e+00	1.000000e+00	1.000000e+00	1.000000e+00	1.000000e+00	1.000000e+00	1.000000e+00	1.000000e+00	1.000000e+00	1.000000e+00	1.000000e+00	1.000000e+00	1.000000e+00	1.000000e+00	1.000000e+00	9.910721e-01	9.909732e-01	9.909620e-01	9.907869e-01	9.905253e-01	9.901071e-01	9.894439e-01	9.884388e-01	9.870278e-01	9.852866e-01	9.834362e-01	9.818450e-01	9.807474e-01	9.800623e-01	9.797603e-01	9.798843e-01	9.802813e-01	9.815796e-01	9.844167e-01	9.888447e-01	9.944604e-01	1.000919e+00	1.008205e+00	1.016172e+00	1.023856e+00	1.029254e+00	1.030948e+00	1.030952e+00	1.029313e+00	1.024726e+00	1.018602e+00	1.012660e+00	1.006893e+00	1.001641e+00	9.981733e-01	9.966798e-01	9.961832e-01	9.959881e-01	9.958568e-01	9.957183e-01	9.955450e-01	9.953287e-01	9.950694e-01	9.947622e-01	9.943927e-01	9.939016e-01	9.932047e-01	9.921530e-01	9.906427e-01	9.887321e-01	9.867488e-01	9.851006e-01	9.839392e-01	9.831262e-01	9.826454e-01	9.826607e-01	9.828991e-01	9.839168e-01	9.864583e-01	9.907491e-01	9.963785e-01	1.002896e+00	1.010218e+00	1.018253e+00	1.026205e+00	1.032105e+00	1.034235e+00	1.034315e+00	1.032900e+00	1.028551e+00	1.022504e+00	1.016610e+00	1.010821e+00	1.005352e+00	1.001738e+00	1.000366e+00	1.000058e+00	1.000008e+00	1.000001e+00	1.000000e+00	1.000000e+00	1.000000e+00	1.000000e+00	1.000000e+00	1.000000e+00	1.000000e+00	1.000000e+00	1.000000e+00	1.000000e+00	1.000000e+00	1.000000e+00	1.000000e+00	1.000000e+00	1.000000e+00	1.000000e+00	1.000000e+00	1.000000e+00	1.000000e+00	1.000000e+00	1.000000e+00	1.000000e+00	9.907516e-01	9.906436e-01	9.906127e-01	9.903940e-01	9.900322e-01	9.894439e-01	9.885579e-01	9.872624e-01	9.856271e-01	9.838274e-01	9.822791e-01	9.813522e-01	9.809641e-01	9.808425e-01	9.810716e-01	9.815190e-01	9.824344e-01	9.843145e-01	9.875133e-01	9.919194e-01	9.972132e-01	1.003201e+00	1.009807e+00	1.016659e+00	1.022760e+00	1.026639e+00	1.027622e+00	1.027363e+00	1.025435e+00	1.021425e+00	1.017120e+00	1.013154e+00	1.008612e+00	1.003354e+00	9.990628e-01	9.969101e-01	9.961487e-01	9.958668e-01	9.957019e-01	9.955466e-01	9.953632e-01	9.951361e-01	9.948606e-01	9.945215e-01	9.940724e-01	9.934351e-01	9.924665e-01	9.910418e-01	9.891813e-01	9.872232e-01	9.856507e-01	9.846828e-01	9.841403e-01	9.838596e-01	9.839785e-01	9.842991e-01	9.850077e-01	9.866157e-01	9.896147e-01	9.939999e-01	9.993734e-01	1.005422e+00	1.012050e+00	1.018932e+00	1.025190e+00	1.029621e+00	1.030968e+00	1.030803e+00	1.029108e+00	1.025232e+00	1.020916e+00	1.017038e+00	1.012618e+00	1.007259e+00	1.002753e+00	1.000655e+00	1.000110e+00	1.000016e+00	1.000002e+00	1.000000e+00	1.000000e+00	1.000000e+00	1.000000e+00	1.000000e+00	1.000000e+00	1.000000e+00	1.000000e+00	1.000000e+00	1.000000e+00	1.000000e+00	1.000000e+00	1.000000e+00	1.000000e+00	1.000000e+00	1.000000e+00	1.000000e+00	1.000000e+00	1.000000e+00	1.000000e+00	1.000000e+00	1.000000e+00	9.903521e-01	9.902167e-01	9.901235e-01	9.897946e-01	9.892635e-01	9.884388e-01	9.872624e-01	9.857490e-01	9.840063e-01	9.824455e-01	9.815987e-01	9.814249e-01	9.814846e-01	9.818552e-01	9.825666e-01	9.835617e-01	9.851087e-01	9.875575e-01	9.910126e-01	9.952933e-01	1.000202e+00	1.005631e+00	1.011302e+00	1.016623e+00	1.020961e+00	1.023198e+00	1.023663e+00	1.023253e+00	1.021443e+00	1.018541e+00	1.015994e+00	1.013581e+00	1.010103e+00	1.005029e+00	1.000076e+00	9.972196e-01	9.961259e-01	9.957294e-01	9.955203e-01	9.953418e-01	9.951395e-01	9.948896e-01	9.945691e-01	9.941449e-01	9.935376e-01	9.926198e-01	9.912579e-01	9.894506e-01	9.875188e-01	9.859914e-01	9.851347e-01	9.847581e-01	9.846349e-01	9.848842e-01	9.854608e-01	9.862953e-01	9.876175e-01	9.898603e-01	9.932539e-01	9.976215e-01	1.002651e+00	1.008141e+00	1.013793e+00	1.019132e+00	1.023629e+00	1.026290e+00	1.027069e+00	1.026755e+00	1.025162e+00	1.022321e+00	1.019752e+00	1.017445e+00	1.014173e+00	1.009141e+00	1.003962e+00	1.001070e+00	1.000197e+00	1.000030e+00	1.000004e+00	1.000001e+00	1.000000e+00	1.000000e+00	1.000000e+00	1.000000e+00	1.000000e+00	1.000000e+00	1.000000e+00	1.000000e+00	1.000000e+00	1.000000e+00	1.000000e+00	1.000000e+00	1.000000e+00	1.000000e+00	1.000000e+00	1.000000e+00	1.000000e+00	1.000000e+00	1.000000e+00	1.000000e+00	1.000000e+00	9.897759e-01	9.895938e-01	9.893891e-01	9.888947e-01	9.881228e-01	9.870278e-01	9.856271e-01	9.840063e-01	9.824880e-01	9.816807e-01	9.816252e-01	9.817656e-01	9.822290e-01	9.831662e-01	9.844362e-01	9.860766e-01	9.883022e-01	9.912455e-01	9.948195e-01	9.988775e-01	1.003314e+00	1.007931e+00	1.012349e+00	1.015957e+00	1.018192e+00	1.019001e+00	1.019090e+00	1.018739e+00	1.017765e+00	1.016348e+00	1.015263e+00	1.013959e+00	1.011299e+00	1.006526e+00	1.001122e+00	9.975939e-01	9.961155e-01	9.955702e-01	9.953001e-01	9.950854e-01	9.948449e-01	9.945408e-01	9.941287e-01	9.935309e-01	9.926334e-01	9.913062e-01	9.895471e-01	9.876729e-01	9.862269e-01	9.854595e-01	9.851683e-01	9.851100e-01	9.853924e-01	9.861583e-01	9.872825e-01	9.887387e-01	9.907685e-01	9.936247e-01	9.972976e-01	1.001544e+00	1.006103e+00	1.010746e+00	1.015097e+00	1.018651e+00	1.021165e+00	1.022224e+00	1.022549e+00	1.022299e+00	1.021484e+00	1.020120e+00	1.019049e+00	1.017831e+00	1.015439e+00	1.010848e+00	1.005266e+00	1.001609e+00	1.000327e+00	1.000052e+00	1.000008e+00	1.000001e+00	1.000000e+00	1.000000e+00	1.000000e+00	1.000000e+00	1.000000e+00	1.000000e+00	1.000000e+00	1.000000e+00	1.000000e+00	1.000000e+00	1.000000e+00	1.000000e+00	1.000000e+00	1.000000e+00	1.000000e+00	1.000000e+00	1.000000e+00	1.000000e+00	1.000000e+00	1.000000e+00	1.000000e+00	9.888519e-01	9.886115e-01	9.882823e-01	9.875711e-01	9.865734e-01	9.852866e-01	9.838274e-01	9.824455e-01	9.816807e-01	9.816849e-01	9.818775e-01	9.823569e-01	9.833865e-01	9.848950e-01	9.867891e-01	9.891234e-01	9.919665e-01	9.952550e-01	9.988232e-01	1.002531e+00	1.006321e+00	1.009794e+00	1.012454e+00	1.014271e+00	1.014435e+00	1.014240e+00	1.014052e+00	1.014268e+00	1.014873e+00	1.014903e+00	1.014807e+00	1.014232e+00	1.012195e+00	1.007762e+00	1.002116e+00	9.980062e-01	9.961124e-01	9.953775e-01	9.950166e-01	9.947335e-01	9.944194e-01	9.939959e-01	9.933860e-01	9.924831e-01	9.911725e-01	9.894773e-01	9.877144e-01	9.864091e-01	9.857454e-01	9.855016e-01	9.854653e-01	9.857249e-01	9.865147e-01	9.878404e-01	9.895688e-01	9.917337e-01	9.944721e-01	9.978236e-01	1.001629e+00	1.005605e+00	1.009516e+00	1.012904e+00	1.015441e+00	1.017342e+00	1.017746e+00	1.017631e+00	1.017496e+00	1.017772e+00	1.018569e+00	1.018760e+00	1.018655e+00	1.018189e+00	1.016421e+00	1.012291e+00	1.006565e+00	1.002255e+00	1.000508e+00	1.000086e+00	1.000013e+00	1.000002e+00	1.000000e+00	1.000000e+00	1.000000e+00	1.000000e+00	1.000000e+00	1.000000e+00	1.000000e+00	1.000000e+00	1.000000e+00	1.000000e+00	1.000000e+00	1.000000e+00	1.000000e+00	1.000000e+00	1.000000e+00	1.000000e+00	1.000000e+00	1.000000e+00	1.000000e+00	1.000000e+00	1.000000e+00	9.873364e-01	9.870356e-01	9.866506e-01	9.858096e-01	9.846997e-01	9.834362e-01	9.822791e-01	9.815987e-01	9.816252e-01	9.818775e-01	9.823873e-01	9.834243e-01	9.850357e-01	9.871360e-01	9.896947e-01	9.926860e-01	9.960044e-01	9.994847e-01	1.002957e+00	1.006199e+00	1.008825e+00	1.010586e+00	1.011583e+00	1.011156e+00	1.009922e+00	1.009116e+00	1.008991e+00	1.010330e+00	1.012860e+00	1.014330e+00	1.014565e+00	1.014385e+00	1.012776e+00	1.008684e+00	1.002981e+00	9.984052e-01	9.960852e-01	9.951137e-01	9.946142e-01	9.942140e-01	9.937448e-01	9.930954e-01	9.921587e-01	9.908527e-01	9.892473e-01	9.876653e-01	9.865487e-01	9.860030e-01	9.857911e-01	9.857693e-01	9.860074e-01	9.867473e-01	9.881213e-01	9.900383e-01	9.924395e-01	9.953432e-01	9.987167e-01	1.002410e+00	1.006192e+00	1.009698e+00	1.012394e+00	1.014054e+00	1.014889e+00	1.014624e+00	1.013493e+00	1.012638e+00	1.012438e+00	1.013716e+00	1.016511e+00	1.018295e+00	1.018569e+00	1.018443e+00	1.017123e+00	1.013435e+00	1.007787e+00	1.002979e+00	1.000744e+00	1.000136e+00	1.000021e+00	1.000003e+00	1.000001e+00	1.000000e+00	1.000000e+00	1.000000e+00	1.000000e+00	1.000000e+00	1.000000e+00	1.000000e+00	1.000000e+00	1.000000e+00	1.000000e+00	1.000000e+00	1.000000e+00	1.000000e+00	1.000000e+00	1.000000e+00	1.000000e+00	1.000000e+00	1.000000e+00	1.000000e+00	1.000000e+00	9.851143e-01	9.847799e-01	9.844830e-01	9.836726e-01	9.827103e-01	9.818450e-01	9.813522e-01	9.814249e-01	9.817656e-01	9.823569e-01	9.834243e-01	9.850485e-01	9.872260e-01	9.899425e-01	9.931436e-01	9.966815e-01	1.000362e+00	1.003950e+00	1.007056e+00	1.009163e+00	1.010023e+00	1.010221e+00	1.009453e+00	1.006993e+00	1.004710e+00	1.003962e+00	1.004392e+00	1.007438e+00	1.011679e+00	1.013885e+00	1.014332e+00	1.014246e+00	1.012927e+00	1.009221e+00	1.003619e+00	9.987161e-01	9.959603e-01	9.946943e-01	9.939879e-01	9.933767e-01	9.926401e-01	9.916484e-01	9.903568e-01	9.888858e-01	9.875593e-01	9.866702e-01	9.862467e-01	9.860576e-01	9.860531e-01	9.862845e-01	9.869838e-01	9.883325e-01	9.903056e-01	9.928497e-01	9.959671e-01	9.995840e-01	1.003486e+00	1.007358e+00	1.010739e+00	1.013035e+00	1.013915e+00	1.013946e+00	1.013257e+00	1.010886e+00	1.008459e+00	1.007541e+00	1.007766e+00	1.010723e+00	1.015464e+00	1.018064e+00	1.018642e+00	1.018625e+00	1.017574e+00	1.014306e+00	1.008886e+00	1.003742e+00	1.001030e+00	1.000201e+00	1.000032e+00	1.000005e+00	1.000001e+00	1.000000e+00	1.000000e+00	1.000000e+00	1.000000e+00	1.000000e+00	1.000000e+00	1.000000e+00	1.000000e+00	1.000000e+00	1.000000e+00	1.000000e+00	1.000000e+00	1.000000e+00	1.000000e+00	1.000000e+00	1.000000e+00	1.000000e+00	1.000000e+00	1.000000e+00	1.000000e+00	9.823334e-01	9.819983e-01	9.819248e-01	9.813645e-01	9.809197e-01	9.807474e-01	9.809641e-01	9.814846e-01	9.822290e-01	9.833865e-01	9.850357e-01	9.872260e-01	9.899890e-01	9.933086e-01	9.970706e-01	1.001102e+00	1.005074e+00	1.008294e+00	1.010098e+00	1.010540e+00	1.010246e+00	1.008886e+00	1.005582e+00	1.001662e+00	9.996052e-01	9.991932e-01	1.000753e+00	1.005646e+00	1.010946e+00	1.013453e+00	1.013991e+00	1.013946e+00	1.012806e+00	1.009445e+00	1.004036e+00	9.988305e-01	9.956079e-01	9.939762e-01	9.929671e-01	9.920409e-01	9.909696e-01	9.897207e-01	9.884495e-01	9.874293e-01	9.867883e-01	9.864790e-01	9.863123e-01	9.863282e-01	9.865696e-01	9.872660e-01	9.885966e-01	9.905730e-01	9.931556e-01	9.963756e-01	1.000229e+00	1.004509e+00	1.008739e+00	1.012219e+00	1.014251e+00	1.014753e+00	1.014362e+00	1.013072e+00	1.009963e+00	1.005872e+00	1.003414e+00	1.002799e+00	1.004068e+00	1.009058e+00	1.015003e+00	1.018024e+00	1.018694e+00	1.018716e+00	1.017851e+00	1.014964e+00	1.009845e+00	1.004506e+00	1.001354e+00	1.000283e+00	1.000047e+00	1.000007e+00	1.000001e+00	1.000000e+00	1.000000e+00	1.000000e+00	1.000000e+00	1.000000e+00	1.000000e+00	1.000000e+00	1.000000e+00	1.000000e+00	1.000000e+00	1.000000e+00	1.000000e+00	1.000000e+00	1.000000e+00	1.000000e+00	1.000000e+00	1.000000e+00	1.000000e+00	1.000000e+00	1.000000e+00	9.794743e-01	9.791167e-01	9.793244e-01	9.792970e-01	9.795760e-01	9.800623e-01	9.808425e-01	9.818552e-01	9.831662e-01	9.848950e-01	9.871360e-01	9.899425e-01	9.933086e-01	9.971769e-01	1.001495e+00	1.005957e+00	1.009517e+00	1.011242e+00	1.011597e+00	1.010997e+00	1.009366e+00	1.005431e+00	1.000082e+00	9.962925e-01	9.950917e-01	9.952684e-01	9.982863e-01	1.004569e+00	1.010313e+00	1.012913e+00	1.013461e+00	1.013425e+00	1.012434e+00	1.009364e+00	1.004074e+00	9.985585e-01	9.948438e-01	9.927829e-01	9.914212e-01	9.902193e-01	9.890505e-01	9.880359e-01	9.873240e-01	9.869214e-01	9.867049e-01	9.865633e-01	9.866062e-01	9.868801e-01	9.876080e-01	9.889542e-01	9.909422e-01	9.935337e-01	9.967708e-01	1.000729e+00	1.005312e+00	1.010001e+00	1.013794e+00	1.015811e+00	1.016214e+00	1.015570e+00	1.013868e+00	1.010310e+00	1.004975e+00	1.000574e+00	9.989364e-01	9.989136e-01	1.001864e+00	1.008456e+00	1.014781e+00	1.017960e+00	1.018680e+00	1.018722e+00	1.018007e+00	1.015464e+00	1.010663e+00	1.005236e+00	1.001700e+00	1.000378e+00	1.000065e+00	1.000010e+00	1.000002e+00	1.000000e+00	1.000000e+00	1.000000e+00	1.000000e+00	1.000000e+00	1.000000e+00	1.000000e+00	1.000000e+00	1.000000e+00	1.000000e+00	1.000000e+00	1.000000e+00	1.000000e+00	1.000000e+00	1.000000e+00	1.000000e+00	1.000000e+00	1.000000e+00	1.000000e+00	1.000000e+00	9.771105e-01	9.767120e-01	9.772843e-01	9.778823e-01	9.786831e-01	9.797603e-01	9.810716e-01	9.825666e-01	9.844362e-01	9.867891e-01	9.896947e-01	9.931436e-01	9.970706e-01	1.001495e+00	1.006300e+00	1.010342e+00	1.012246e+00	1.012601e+00	1.012090e+00	1.010475e+00	1.006174e+00	9.996243e-01	9.941552e-01	9.917990e-01	9.913356e-01	9.924165e-01	9.968637e-01	1.003721e+00	1.009525e+00	1.012144e+00	1.012676e+00	1.012627e+00	1.011720e+00	1.008776e+00	1.003510e+00	9.977101e-01	9.935394e-01	9.911292e-01	9.896238e-01	9.885336e-01	9.877602e-01	9.872924e-01	9.870540e-01	9.869006e-01	9.868150e-01	9.869050e-01	9.872441e-01	9.880402e-01	9.894338e-01	9.914550e-01	9.940689e-01	9.973070e-01	1.001280e+00	1.006001e+00	1.011026e+00	1.015205e+00	1.017419e+00	1.017859e+00	1.017236e+00	1.015301e+00	1.011477e+00	1.005290e+00	9.992013e-01	9.961096e-01	9.954116e-01	9.964399e-01	1.001191e+00	1.008270e+00	1.014539e+00	1.017795e+00	1.018611e+00	1.018674e+00	1.018087e+00	1.015842e+00	1.011349e+00	1.005901e+00	1.002046e+00	1.000482e+00	1.000086e+00	1.000014e+00	1.000002e+00	1.000000e+00	1.000000e+00	1.000000e+00	1.000000e+00	1.000000e+00	1.000000e+00	1.000000e+00	1.000000e+00	1.000000e+00	1.000000e+00	1.000000e+00	1.000000e+00	1.000000e+00	1.000000e+00	1.000000e+00	1.000000e+00	1.000000e+00	1.000000e+00	1.000000e+00	1.000000e+00	9.755897e-01	9.753858e-01	9.762909e-01	9.771658e-01	9.784114e-01	9.798843e-01	9.815190e-01	9.835617e-01	9.860766e-01	9.891234e-01	9.926860e-01	9.966815e-01	1.001102e+00	1.005957e+00	1.010342e+00	1.012661e+00	1.013156e+00	1.013007e+00	1.011720