# vtk DataFile Version 3.0
vtk output
ASCII
DATASET STRUCTURED_GRID
DIMENSIONS 101 101 1
POINTS 10201 double
0.000000e+00	0.000000e+00	0.0	1.000000e-02	0.000000e+00	0.0	2.000000e-02	0.000000e+00	0.0	3.000000e-02	0.000000e+00	0.0	4.000000e-02	0.000000e+00	0.0	5.000000e-02	0.000000e+00	0.0	6.000000e-02	0.000000e+00	0.0	7.000000e-02	0.000000e+00	0.0	8.000000e-02	0.000000e+00	0.0	9.000000e-02	0.000000e+00	0.0	1.000000e-01	0.000000e+00	0.0	1.100000e-01	0.000000e+00	0.0	1.200000e-01	0.000000e+00	0.0	1.300000e-01	0.000000e+00	0.0	1.400000e-01	0.000000e+00	0.0	1.500000e-01	0.000000e+00	0.0	1.600000e-01	0.000000e+00	0.0	1.700000e-01	0.000000e+00	0.0	1.800000e-01	0.000000e+00	0.0	1.900000e-01	0.000000e+00	0.0	2.000000e-01	0.000000e+00	0.0	2.100000e-01	0.000000e+00	0.0	2.200000e-01	0.000000e+00	0.0	2.300000e-01	0.000000e+00	0.0	2.400000e-01	0.000000e+00	0.0	2.500000e-01	0.000000e+00	0.0	2.600000e-01	0.000000e+00	0.0	2.700000e-01	0.000000e+00	0.0	2.800000e-01	0.000000e+00	0.0	2.900000e-01	0.000000e+00	0.0	3.000000e-01	0.000000e+00	0.0	3.100000e-01	0.000000e+00	0.0	3.200000e-01	0.000000e+00	0.0	3.300000e-01	0.000000e+00	0.0	3.400000e-01	0.000000e+00	0.0	3.500000e-01	0.000000e+00	0.0	3.600000e-01	0.000000e+00	0.0	3.700000e-01	0.000000e+00	0.0	3.800000e-01	0.000000e+00	0.0	3.900000e-01	0.000000e+00	0.0	4.000000e-01	0.000000e+00	0.0	4.100000e-01	0.000000e+00	0.0	4.200000e-01	0.000000e+00	0.0	4.300000e-01	0.000000e+00	0.0	4.400000e-01	0.000000e+00	0.0	4.500000e-01	0.000000e+00	0.0	4.600000e-01	0.000000e+00	0.0	4.700000e-01	0.000000e+00	0.0	4.800000e-01	0.000000e+00	0.0	4.900000e-01	0.000000e+00	0.0	5.000000e-01	0.000000e+00	0.0	5.100000e-01	0.000000e+00	0.0	5.200000e-01	0.000000e+00	0.0	5.300000e-01	0.000000e+00	0.0	5.400000e-01	0.000000e+00	0.0	5.500000e-01	0.000000e+00	0.0	5.600000e-01	0.000000e+00	0.0	5.700000e-01	0.000000e+00	0.0	5.800000e-01	0.000000e+00	0.0	5.900000e-01	0.000000e+00	0.0	6.000000e-01	0.000000e+00	0.0	6.100000e-01	0.000000e+00	0.0	6.200000e-01	0.000000e+00	0.0	6.300000e-01	0.000000e+00	0.0	6.400000e-01	0.000000e+00	0.0	6.500000e-01	0.000000e+00	0.0	6.600000e-01	0.000000e+00	0.0	6.700000e-01	0.000000e+00	0.0	6.800000e-01	0.000000e+00	0.0	6.900000e-01	0.000000e+00	0.0	7.000000e-01	0.000000e+00	0.0	7.100000e-01	0.000000e+00	0.0	7.200000e-01	0.000000e+00	0.0	7.300000e-01	0.000000e+00	0.0	7.400000e-01	0.000000e+00	0.0	7.500000e-01	0.000000e+00	0.0	7.600000e-01	0.000000e+00	0.0	7.700000e-01	0.000000e+00	0.0	7.800000e-01	0.000000e+00	0.0	7.900000e-01	0.000000e+00	0.0	8.000000e-01	0.000000e+00	0.0	8.100000e-01	0.000000e+00	0.0	8.200000e-01	0.000000e+00	0.0	8.300000e-01	0.000000e+00	0.0	8.400000e-01	0.000000e+00	0.0	8.500000e-01	0.000000e+00	0.0	8.600000e-01	0.000000e+00	0.0	8.700000e-01	0.000000e+00	0.0	8.800000e-01	0.000000e+00	0.0	8.900000e-01	0.000000e+00	0.0	9.000000e-01	0.000000e+00	0.0	9.100000e-01	0.000000e+00	0.0	9.200000e-01	0.000000e+00	0.0	9.300000e-01	0.000000e+00	0.0	9.400000e-01	0.000000e+00	0.0	9.500000e-01	0.000000e+00	0.0	9.600000e-01	0.000000e+00	0.0	9.700000e-01	0.000000e+00	0.0	9.800000e-01	0.000000e+00	0.0	9.900000e-01	0.000000e+00	0.0	1.000000e+00	0.000000e+00	0.0	0.000000e+00	1.000000e-02	0.0	1.000000e-02	1.000000e-02	0.0	2.000000e-02	1.000000e-02	0.0	3.000000e-02	1.000000e-02	0.0	4.000000e-02	1.000000e-02	0.0	5.000000e-02	1.000000e-02	0.0	6.000000e-02	1.000000e-02	0.0	7.000000e-02	1.000000e-02	0.0	8.000000e-02	1.000000e-02	0.0	9.000000e-02	1.000000e-02	0.0	1.000000e-01	1.000000e-02	0.0	1.100000e-01	1.000000e-02	0.0	1.200000e-01	1.000000e-02	0.0	1.300000e-01	1.000000e-02	0.0	1.400000e-01	1.000000e-02	0.0	1.500000e-01	1.000000e-02	0.0	1.600000e-01	1.000000e-02	0.0	1.700000e-01	1.000000e-02	0.0	1.800000e-01	1.000000e-02	0.0	1.900000e-01	1.000000e-02	0.0	2.000000e-01	1.000000e-02	0.0	2.100000e-01	1.000000e-02	0.0	2.200000e-01	1.000000e-02	0.0	2.300000e-01	1.000000e-02	0.0	2.400000e-01	1.000000e-02	0.0	2.500000e-01	1.000000e-02	0.0	2.600000e-01	1.000000e-02	0.0	2.700000e-01	1.000000e-02	0.0	2.800000e-01	1.000000e-02	0.0	2.900000e-01	1.000000e-02	0.0	3.000000e-01	1.000000e-02	0.0	3.100000e-01	1.000000e-02	0.0	3.200000e-01	1.000000e-02	0.0	3.300000e-01	1.000000e-02	0.0	3.400000e-01	1.000000e-02	0.0	3.500000e-01	1.000000e-02	0.0	3.600000e-01	1.000000e-02	0.0	3.700000e-01	1.000000e-02	0.0	3.800000e-01	1.000000e-02	0.0	3.900000e-01	1.000000e-02	0.0	4.000000e-01	1.000000e-02	0.0	4.100000e-01	1.000000e-02	0.0	4.200000e-01	1.000000e-02	0.0	4.300000e-01	1.000000e-02	0.0	4.400000e-01	1.000000e-02	0.0	4.500000e-01	1.000000e-02	0.0	4.600000e-01	1.000000e-02	0.0	4.700000e-01	1.000000e-02	0.0	4.800000e-01	1.000000e-02	0.0	4.900000e-01	1.000000e-02	0.0	5.000000e-01	1.000000e-02	0.0	5.100000e-01	1.000000e-02	0.0	5.200000e-01	1.000000e-02	0.0	5.300000e-01	1.000000e-02	0.0	5.400000e-01	1.000000e-02	0.0	5.500000e-01	1.000000e-02	0.0	5.600000e-01	1.000000e-02	0.0	5.700000e-01	1.000000e-02	0.0	5.800000e-01	1.000000e-02	0.0	5.900000e-01	1.000000e-02	0.0	6.000000e-01	1.000000e-02	0.0	6.100000e-01	1.000000e-02	0.0	6.200000e-01	1.000000e-02	0.0	6.300000e-01	1.000000e-02	0.0	6.400000e-01	1.000000e-02	0.0	6.500000e-01	1.000000e-02	0.0	6.600000e-01	1.000000e-02	0.0	6.700000e-01	1.000000e-02	0.0	6.800000e-01	1.000000e-02	0.0	6.900000e-01	1.000000e-02	0.0	7.000000e-01	1.000000e-02	0.0	7.100000e-01	1.000000e-02	0.0	7.200000e-01	1.000000e-02	0.0	7.300000e-01	1.000000e-02	0.0	7.400000e-01	1.000000e-02	0.0	7.500000e-01	1.000000e-02	0.0	7.600000e-01	1.000000e-02	0.0	7.700000e-01	1.000000e-02	0.0	7.800000e-01	1.000000e-02	0.0	7.900000e-01	1.000000e-02	0.0	8.000000e-01	1.000000e-02	0.0	8.100000e-01	1.000000e-02	0.0	8.200000e-01	1.000000e-02	0.0	8.300000e-01	1.000000e-02	0.0	8.400000e-01	1.000000e-02	0.0	8.500000e-01	1.000000e-02	0.0	8.600000e-01	1.000000e-02	0.0	8.700000e-01	1.000000e-02	0.0	8.800000e-01	1.000000e-02	0.0	8.900000e-01	1.000000e-02	0.0	9.000000e-01	1.000000e-02	0.0	9.100000e-01	1.000000e-02	0.0	9.200000e-01	1.000000e-02	0.0	9.300000e-01	1.000000e-02	0.0	9.400000e-01	1.000000e-02	0.0	9.500000e-01	1.000000e-02	0.0	9.600000e-01	1.000000e-02	0.0	9.700000e-01	1.000000e-02	0.0	9.800000e-01	1.000000e-02	0.0	9.900000e-01	1.000000e-02	0.0	1.000000e+00	1.000000e-02	0.0	0.000000e+00	2.000000e-02	0.0	1.000000e-02	2.000000e-02	0.0	2.000000e-02	2.000000e-02	0.0	3.000000e-02	2.000000e-02	0.0	4.000000e-02	2.000000e-02	0.0	5.000000e-02	2.000000e-02	0.0	6.000000e-02	2.000000e-02	0.0	7.000000e-02	2.000000e-02	0.0	8.000000e-02	2.000000e-02	0.0	9.000000e-02	2.000000e-02	0.0	1.000000e-01	2.000000e-02	0.0	1.100000e-01	2.000000e-02	0.0	1.200000e-01	2.000000e-02	0.0	1.300000e-01	2.000000e-02	0.0	1.400000e-01	2.000000e-02	0.0	1.500000e-01	2.000000e-02	0.0	1.600000e-01	2.000000e-02	0.0	1.700000e-01	2.000000e-02	0.0	1.800000e-01	2.000000e-02	0.0	1.900000e-01	2.000000e-02	0.0	2.000000e-01	2.000000e-02	0.0	2.100000e-01	2.000000e-02	0.0	2.200000e-01	2.000000e-02	0.0	2.300000e-01	2.000000e-02	0.0	2.400000e-01	2.000000e-02	0.0	2.500000e-01	2.000000e-02	0.0	2.600000e-01	2.000000e-02	0.0	2.700000e-01	2.000000e-02	0.0	2.800000e-01	2.000000e-02	0.0	2.900000e-01	2.000000e-02	0.0	3.000000e-01	2.000000e-02	0.0	3.100000e-01	2.000000e-02	0.0	3.200000e-01	2.000000e-02	0.0	3.300000e-01	2.000000e-02	0.0	3.400000e-01	2.000000e-02	0.0	3.500000e-01	2.000000e-02	0.0	3.600000e-01	2.000000e-02	0.0	3.700000e-01	2.000000e-02	0.0	3.800000e-01	2.000000e-02	0.0	3.900000e-01	2.000000e-02	0.0	4.000000e-01	2.000000e-02	0.0	4.100000e-01	2.000000e-02	0.0	4.200000e-01	2.000000e-02	0.0	4.300000e-01	2.000000e-02	0.0	4.400000e-01	2.000000e-02	0.0	4.500000e-01	2.000000e-02	0.0	4.600000e-01	2.000000e-02	0.0	4.700000e-01	2.000000e-02	0.0	4.800000e-01	2.000000e-02	0.0	4.900000e-01	2.000000e-02	0.0	5.000000e-01	2.000000e-02	0.0	5.100000e-01	2.000000e-02	0.0	5.200000e-01	2.000000e-02	0.0	5.300000e-01	2.000000e-02	0.0	5.400000e-01	2.000000e-02	0.0	5.500000e-01	2.000000e-02	0.0	5.600000e-01	2.000000e-02	0.0	5.700000e-01	2.000000e-02	0.0	5.800000e-01	2.000000e-02	0.0	5.900000e-01	2.000000e-02	0.0	6.000000e-01	2.000000e-02	0.0	6.100000e-01	2.000000e-02	0.0	6.200000e-01	2.000000e-02	0.0	6.300000e-01	2.000000e-02	0.0	6.400000e-01	2.000000e-02	0.0	6.500000e-01	2.000000e-02	0.0	6.600000e-01	2.000000e-02	0.0	6.700000e-01	2.000000e-02	0.0	6.800000e-01	2.000000e-02	0.0	6.900000e-01	2.000000e-02	0.0	7.000000e-01	2.000000e-02	0.0	7.100000e-01	2.000000e-02	0.0	7.200000e-01	2.000000e-02	0.0	7.300000e-01	2.000000e-02	0.0	7.400000e-01	2.000000e-02	0.0	7.500000e-01	2.000000e-02	0.0	7.600000e-01	2.000000e-02	0.0	7.700000e-01	2.000000e-02	0.0	7.800000e-01	2.000000e-02	0.0	7.900000e-01	2.000000e-02	0.0	8.000000e-01	2.000000e-02	0.0	8.100000e-01	2.000000e-02	0.0	8.200000e-01	2.000000e-02	0.0	8.300000e-01	2.000000e-02	0.0	8.400000e-01	2.000000e-02	0.0	8.500000e-01	2.000000e-02	0.0	8.600000e-01	2.000000e-02	0.0	8.700000e-01	2.000000e-02	0.0	8.800000e-01	2.000000e-02	0.0	8.900000e-01	2.000000e-02	0.0	9.000000e-01	2.000000e-02	0.0	9.100000e-01	2.000000e-02	0.0	9.200000e-01	2.000000e-02	0.0	9.300000e-01	2.000000e-02	0.0	9.400000e-01	2.000000e-02	0.0	9.500000e-01	2.000000e-02	0.0	9.600000e-01	2.000000e-02	0.0	9.700000e-01	2.000000e-02	0.0	9.800000e-01	2.000000e-02	0.0	9.900000e-01	2.000000e-02	0.0	1.000000e+00	2.000000e-02	0.0	0.000000e+00	3.000000e-02	0.0	1.000000e-02	3.000000e-02	0.0	2.000000e-02	3.000000e-02	0.0	3.000000e-02	3.000000e-02	0.0	4.000000e-02	3.000000e-02	0.0	5.000000e-02	3.000000e-02	0.0	6.000000e-02	3.000000e-02	0.0	7.000000e-02	3.000000e-02	0.0	8.000000e-02	3.000000e-02	0.0	9.000000e-02	3.000000e-02	0.0	1.000000e-01	3.000000e-02	0.0	1.100000e-01	3.000000e-02	0.0	1.200000e-01	3.000000e-02	0.0	1.300000e-01	3.000000e-02	0.0	1.400000e-01	3.000000e-02	0.0	1.500000e-01	3.000000e-02	0.0	1.600000e-01	3.000000e-02	0.0	1.700000e-01	3.000000e-02	0.0	1.800000e-01	3.000000e-02	0.0	1.900000e-01	3.000000e-02	0.0	2.000000e-01	3.000000e-02	0.0	2.100000e-01	3.000000e-02	0.0	2.200000e-01	3.000000e-02	0.0	2.300000e-01	3.000000e-02	0.0	2.400000e-01	3.000000e-02	0.0	2.500000e-01	3.000000e-02	0.0	2.600000e-01	3.000000
[...]
POINT_DATA 10201

SCALARS Height double 1
LOOKUP_TABLE default
1.000001e+00	1.000001e+00	1.000003e+00	1.000010e+00	1.000027e+00	1.000067e+00	1.000156e+00	1.000336e+00	1.000663e+00	1.001209e+00	1.002078e+00	1.003470e+00	1.005703e+00	1.009099e+00	1.013730e+00	1.019241e+00	1.024876e+00	1.029825e+00	1.033586e+00	1.035986e+00	1.036886e+00	1.035986e+00	1.033586e+00	1.029825e+00	1.024876e+00	1.019241e+00	1.013730e+00	1.009099e+00	1.005703e+00	1.003470e+00	1.002078e+00	1.001209e+00	1.000663e+00	1.000336e+00	1.000156e+00	1.000067e+00	1.000026e+00	1.000010e+00	1.000003e+00	1.000001e+00	1.000000e+00	1.000000e+00	1.000000e+00	1.000000e+00	1.000000e+00	1.000000e+00	1.000000e+00	1.000000e+00	1.000000e+00	1.000000e+00	1.000000e+00	1.000000e+00	1.000000e+00	1.000000e+00	1.000000e+00	1.000000e+00	1.000000e+00	1.000000e+00	1.000000e+00	1.000000e+00	1.000000e+00	1.000000e+00	1.000000e+00	1.000000e+00	1.000000e+00	1.000000e+00	1.000000e+00	1.000000e+00	1.000000e+00	1.000000e+00	1.000000e+00	1.000000e+00	1.000000e+00	1.000000e+00	1.000000e+00	1.000000e+00	1.000000e+00	1.000000e+00	1.000000e+00	1.000000e+00	1.000000e+00	1.000000e+00	1.000000e+00	1.000000e+00	1.000000e+00	1.000000e+00	1.000000e+00	1.000000e+00	1.000000e+00	1.000000e+00	1.000000e+00	1.000000e+00	1.000000e+00	1.000000e+00	1.000000e+00	1.000000e+00	1.000000e+00	1.000000e+00	1.000000e+00	1.000000e+00	1.000000e+00	1.000001e+00	1.000001e+00	1.000004e+00	1.000011e+00	1.000029e+00	1.000074e+00	1.000171e+00	1.000362e+00	1.000700e+00	1.001259e+00	1.002188e+00	1.003767e+00	1.006366e+00	1.010221e+00	1.015095e+00	1.020294e+00	1.025078e+00	1.028985e+00	1.031795e+00	1.033574e+00	1.034200e+00	1.033574e+00	1.031795e+00	1.028985e+00	1.025078e+00	1.020294e+00	1.015095e+00	1.010221e+00	1.006366e+00	1.003767e+00	1.002188e+00	1.001259e+00	1.000700e+00	1.000362e+00	1.000171e+00	1.000074e+00	1.000029e+00	1.000011e+00	1.000004e+00	1.000001e+00	1.000000e+00	1.000000e+00	1.000000e+00	1.000000e+00	1.000000e+00	1.000000e+00	1.000000e+00	1.000000e+00	1.000000e+00	1.000000e+00	1.000000e+00	1.000000e+00	1.000000e+00	1.000000e+00	1.000000e+00	1.000000e+00	1.000000e+00	1.000000e+00	1.000000e+00	1.000000e+00	1.000000e+00	1.000000e+00	1.000000e+00	1.000000e+00	1.000000e+00	1.000000e+00	1.000000e+00	1.000000e+00	1.000000e+00	1.000000e+00	1.000000e+00	1.000000e+00	1.000000e+00	1.000000e+00	1.000000e+00	1.000000e+00	1.000000e+00	1.000000e+00	1.000000e+00	1.000000e+00	1.000000e+00	1.000000e+00	1.000000e+00	1.000000e+00	1.000000e+00	1.000000e+00	1.000000e+00	1.000000e+00	1.000000e+00	1.000000e+00	1.000000e+00	1.000000e+00	1.000000e+00	1.000000e+00	1.000000e+00	1.000000e+00	1.000000e+00	1.000000e+00	1.000000e+00	1.000000e+00	1.000000e+00	1.000003e+00	1.000004e+00	1.000012e+00	1.000034e+00	1.000089e+00	1.000215e+00	1.000474e+00	1.000949e+00	1.001779e+00	1.003265e+00	1.005987e+00	1.010587e+00	1.016955e+00	1.023876e+00	1.029970e+00	1.034468e+00	1.037283e+00	1.039010e+00	1.040067e+00	1.040519e+00	1.040663e+00	1.040519e+00	1.040067e+00	1.039010e+00	1.037283e+00	1.034468e+00	1.029970e+00	1.023876e+00	1.016955e+00	1.010587e+00	1.005987e+00	1.003265e+00	1.001779e+00	1.000949e+00	1.000474e+00	1.000215e+00	1.000089e+00	1.000034e+00	1.000012e+00	1.000004e+00	1.000001e+00	1.000000e+00	1.000000e+00	1.000000e+00	1.000000e+00	1.000000e+00	1.000000e+00	1.000000e+00	1.000000e+00	1.000000e+00	1.000000e+00	1.000000e+00	1.000000e+00	1.000000e+00	1.000000e+00	1.000000e+00	1.000000e+00	1.000000e+00	1.000000e+00	1.000000e+00	1.000000e+00	1.000000e+00	1.000000e+00	1.000000e+00	1.000000e+00	1.000000e+00	1.000000e+00	1.000000e+00	1.000000e+00	1.000000e+00	1.000000e+00	1.000000e+00	1.000000e+00	1.000000e+00	1.000000e+00	1.000000e+00	1.000000e+00	1.000000e+00	1.000000e+00	1.000000e+00	1.000000e+00	1.000000e+00	1.000000e+00	1.000000e+00	1.000000e+00	1.000000e+00	1.000000e+00	1.000000e+00	1.000000e+00	1.000000e+00	1.000000e+00	1.000000e+00	1.000000e+00	1.000000e+00	1.000000e+00	1.000000e+00	1.000000e+00	1.000000e+00	1.000000e+00	1.000000e+00	1.000000e+00	1.000010e+00	1.000011e+00	1.000034e+00	1.000090e+00	1.000229e+00	1.000523e+00	1.001084e+00	1.002104e+00	1.004038e+00	1.007806e+00	1.014248e+00	1.022525e+00	1.030271e+00	1.035884e+00	1.038940e+00	1.040310e+00	1.040671e+00	1.040547e+00	1.040343e+00	1.040197e+00	1.040152e+00	1.040197e+00	1.040343e+00	1.040547e+00	1.040671e+00	1.040310e+00	1.038940e+00	1.035884e+00	1.030271e+00	1.022525e+00	1.014248e+00	1.007806e+00	1.004038e+00	1.002104e+00	1.001084e+00	1.000523e+00	1.000229e+00	1.000090e+00	1.000033e+00	1.000011e+00	1.000003e+00	1.000001e+00	1.000000e+00	1.000000e+00	1.000000e+00	1.000000e+00	1.000000e+00	1.000000e+00	1.000000e+00	1.000000e+00	1.000000e+00	1.000000e+00	1.000000e+00	1.000000e+00	1.000000e+00	1.000000e+00	1.000000e+00	1.000000e+00	1.000000e+00	1.000000e+00	1.000000e+00	1.000000e+00	1.000000e+00	1.000000e+00	1.000000e+00	1.000000e+00	1.000000e+00	1.000000e+00	1.000000e+00	1.000000e+00	1.000000e+00	1.000000e+00	1.000000e+00	1.000000e+00	1.000000e+00	1.000000e+00	1.000000e+00	1.000000e+00	1.000000e+00	1.000000e+00	1.000000e+00	1.000000e+00	1.000000e+00	1.000000e+00	1.000000e+00	1.000000e+00	1.000000e+00	1.000000e+00	1.000000e+00	1.000000e+00	1.000000e+00	1.000000e+00	1.000000e+00	1.000000e+00	1.000000e+00	1.000000e+00	1.000000e+00	1.000000e+00	1.000000e+00	1.000000e+00	1.000000e+00	1.000027e+00	1.000029e+00	1.000089e+00	1.000229e+00	1.000546e+00	1.001178e+00	1.002379e+00	1.004774e+00	1.009653e+00	1.017944e+00	1.027662e+00	1.035328e+00	1.039723e+00	1.041524e+00	1.041869e+00	1.041140e+00	1.040341e+00	1.039655e+00	1.039096e+00	1.038738e+00	1.038614e+00	1.038738e+00	1.039096e+00	1.039655e+00	1.040341e+00	1.041140e+00	1.041869e+00	1.041524e+00	1.039723e+00	1.035328e+00	1.027662e+00	1.017944e+00	1.009653e+00	1.004774e+00	1.002379e+00	1.001178e+00	1.000546e+00	1.000228e+00	1.000086e+00	1.000030e+00	1.000009e+00	1.000003e+00	1.000001e+00	1.000000e+00	1.000000e+00	1.000000e+00	1.000000e+00	1.000000e+00	1.000000e+00	1.000000e+00	1.000000e+00	1.000000e+00	1.000000e+00	1.000000e+00	1.000000e+00	1.000000e+00	1.000000e+00	1.000000e+00	1.000000e+00	1.000000e+00	1.000000e+00	1.000000e+00	1.000000e+00	1.000000e+00	1.000000e+00	1.000000e+00	1.000000e+00	1.000000e+00	1.000000e+00	1.000000e+00	1.000000e+00	1.000000e+00	1.000000e+00	1.000000e+00	1.000000e+00	1.000000e+00	1.000000e+00	1.000000e+00	1.000000e+00	1.000000e+00	1.000000e+00	1.000000e+00	1.000000e+00	1.000000e+00	1.000000e+00	1.000000e+00	1.000000e+00	1.000000e+00	1.000000e+00	1.000000e+00	1.000000e+00	1.000000e+00	1.000000e+00	1.000000e+00	1.000000e+00	1.000000e+00	1.000000e+00	1.000000e+00	1.000000e+00	1.000000e+00	1.000000e+00	1.000067e+00	1.000074e+00	1.000215e+00	1.000523e+00	1.001178e+00	1.002479e+00	1.005192e+00	1.010946e+00	1.020737e+00	1.031364e+00	1.038464e+00	1.041671e+00	1.042764e+00	1.042511e+00	1.041421e+00	1.039961e+00	1.038253e+00	1.036594e+00	1.035220e+00	1.034322e+00	1.034004e+00	1.034322e+00	1.035220e+00	1.036594e+00	1.038253e+00	1.039961e+00	1.041421e+00	1.042511e+00	1.042764e+00	1.041671e+00	1.038464e+00	1.031364e+00	1.020737e+00	1.010946e+00	1.005192e+00	1.002479e+00	1.001178e+00	1.000522e+00	1.000209e+00	1.000075e+00	1.000025e+00	1.000007e+00	1.000002e+00	1.000001e+00	1.000000e+00	1.000000e+00	1.000000e+00	1.000000e+00	1.000000e+00	1.000000e+00	1.000000e+00	1.000000e+00	1.000000e+00	1.000000e+00	1.000000e+00	1.000000e+00	1.000000e+00	1.000000e+00	1.000000e+00	1.000000e+00	1.000000e+00	1.000000e+00	1.000000e+00	1.000000e+00	1.000000e+00	1.000000e+00	1.000000e+00	1.000000e+00	1.000000e+00	1.000000e+00	1.000000e+00	1.000000e+00	1.000000e+00	1.000000e+00	1.000000e+00	1.000000e+00	1.000000e+00	1.000000e+00	1.000000e+00	1.000000e+00	1.000000e+00	1.000000e+00	1.000000e+00	1.000000e+00	1.000000e+00	1.000000e+00	1.000000e+00	1.000000e+00	1.000000e+00	1.000000e+00	1.000000e+00	1.000000e+00	1.000000e+00	1.000000e+00	1.000000e+00	1.000000e+00	1.000000e+00	1.000000e+00	1.000000e+00	1.000000e+00	1.000000e+00	1.000156e+00	1.000171e+00	1.000474e+00	1.001084e+00	1.002379e+00	1.005192e+00	1.011410e+00	1.022221e+00	1.033503e+00	1.040124e+00	1.042582e+00	1.043362e+00	1.042983e+00	1.041377e+00	1.038330e+00	1.034532e+00	1.030774e+00	1.027517e+00	1.025063e+00	1.023564e+00	1.023054e+00	1.023564e+00	1.025063e+00	1.027517e+00	1.030774e+00	1.034532e+00	1.038330e+00	1.041377e+00	1.042983e+00	1.043362e+00	1.042582e+00	1.040124e+00	1.033503e+00	1.022221e+00	1.011410e+00	1.005193e+00	1.002379e+00	1.001082e+00	1.000458e+00	1.000174e+00	1.000059e+00	1.000018e+00	1.000005e+00	1.000001e+00	1.000000e+00	1.000000e+00	1.000000e+00	1.000000e+00	1.000000e+00	1.000000e+00	1.000000e+00	1.000000e+00	1.000000e+00	1.000000e+00	1.000000e+00	1.000000e+00	1.000000e+00	1.000000e+00	1.000000e+00	1.000000e+00	1.000000e+00	1.000000e+00	1.000000e+00	1.000000e+00	1.000000e+00	1.000000e+00	1.000000e+00	1.000000e+00	1.000000e+00	1.000000e+00	1.000000e+00	1.000000e+00	1.000000e+00	1.000000e+00	1.000000e+00	1.000000e+00	1.000000e+00	1.000000e+00	1.000000e+00	1.000000e+00	1.000000e+00	1.000000e+00	1.000000e+00	1.000000e+00	1.000000e+00	1.000000e+00	1.000000e+00	1.000000e+00	1.000000e+00	1.000000e+00	1.000000e+00	1.000000e+00	1.000000e+00	1.000000e+00	1.000000e+00	1.000000e+00	1.000000e+00	1.000000e+00	1.000000e+00	1.000000e+00	1.000000e+00	1.000336e+00	1.000362e+00	1.000949e+00	1.002104e+00	1.004774e+00	1.010946e+00	1.022221e+00	1.034190e+00	1.040818e+00	1.042960e+00	1.043599e+00	1.043312e+00	1.040894e+00	1.035468e+00	1.029039e+00	1.022960e+00	1.017835e+00	1.013751e+00	1.010840e+00	1.009161e+00	1.008566e+00	1.009161e+00	1.010840e+00	1.013751e+00	1.017835e+00	1.022960e+00	1.029039e+00	1.035468e+00	1.040894e+00	1.043312e+00	1.043599e+00	1.042960e+00	1.040818e+00	1.034190e+00	1.022222e+00	1.010947e+00	1.004773e+00	1.002100e+00	1.000913e+00	1.000367e+00	1.000132e+00	1.000042e+00	1.000012e+00	1.000003e+00	1.000001e+00	1.000000e+00	1.000000e+00	1.000000e+00	1.000000e+00	1.000000e+00	1.000000e+00	1.000000e+00	1.000000e+00	1.000000e+00	1.000000e+00	1.000000e+00	1.000000e+00	1.000000e+00	1.000000e+00	1.000000e+00	1.000000e+00	1.000000e+00	1.000000e+00	1.000000e+00	1.000000e+00	1.000000e+00	1.000000e+00	1.000000e+00	1.000000e+00	1.000000e+00	1.000000e+00	1.000000e+00	1.000000e+00	1.000000e+00	1.000000e+00	1.000000e+00	1.000000e+00	1.000000e+00	1.000000e+00	1.000000e+00	1.000000e+00	1.000000e+00	1.000000e+00	1.000000e+00	1.000000e+00	1.000000e+00	1.000000e+00	1.000000e+00	1.000000e+00	1.000000e+00	1.000000e+00	1.000000e+00	1.000000e+00	1.000000e+00	1.000000e+00	1.000000e+00	1.000000e+00	1.000000e+00	1.000000e+00	1.000000e+00	1.000000e+00	1.000663e+00	1.000700e+00	1.001779e+00	1.004038e+00	1.009653e+00	1.020737e+00	1.033503e+00	1.040818e+00	1.043044e+00	1.043629e+00	1.043516e+00	1.040293e+00	1.032550e+00	1.023369e+00	1.015306e+00	1.008746e+00	1.003517e+00	9.995197e-01	9.966035e-01	9.948743e-01	9.943762e-01	9.948743e-01	9.966035e-01	9.995197e-01	1.003517e+00	1.008746e+00	1.015306e+00	1.023369e+00	1.032550e+00	1.040293e+00	1.043516e+00	1.043629e+00	1.043045e+00	1.040818e+00	1.033504e+00	1.020738e+00	1.009650e+00	1.004028e+00	1.001703e+00	1.000705e+00	1.000267e+00	1.000090e+00	1.000027e+00	1.000008e+00	1.000002e+00	1.000000e+00	1.000000e+00	1.000000e+00	1.000000e+00	1.000000e+00	1.000000e+00	1.000000e+00	1.000000e+00	1.000000e+00	1.000000e+00	1.000000e+00	1.000000e+00	1.000000e+00	1.000000e+00	1.000000e+00	1.000000e+00	1.000000e+00	1.000000e+00	1.000000e+00	1.000000e+00	1.000000e+00	1.000000e+00	1.000000e+00	1.000000e+00	1.000000e+00	1.000000e+00	1.000000e+00	1.000000e+00	1.000000e+00	1.000000e+00	1.000000e+00	1.000000e+00	1.000000e+00	1.000000e+00	1.000000e+00	1.000000e+00	1.000000e+00	1.000000e+00	1.000000e+00	1.000000e+00	1.000000e+00	1.000000e+00	1.000000e+00	1.000000e+00	1.000000e+00	1.000000e+00	1.000000e+00	1.000000e+00	1.000000e+00	1.000000e+00	1.000000e+00	1.000000e+00	1.000000e+00	1.000000e+00	1.000000e+00	1.000000e+00	1.001209e+00	1.001259e+00	1.003265e+00	1.007806e+00	1.017944e+00	1.031364e+00	1.040124e+00	1.042960e+00	1.043629e+00	1.043597e+00	1.039915e+00	1.030446e+00	1.018883e+00	1.009180e+00	1.001554e+00	9.954973e-01	9.907753e-01	9.872598e-01	9.847530e-01	9.830968e-01	9.824292e-01	9.830968e-01	9.847530e-01	9.872598e-01	9.907753e-01	9.954973e-01	1.001554e+00	1.009180e+00	1.018883e+00	1.030446e+00	1.039915e+00	1.043597e+00	1.043629e+00	1.042960e+00	1.040126e+00	1.031367e+00	1.017939e+00	1.007784e+00	1.003114e+00	1.001265e+00	1.000497e+00	1.000177e+00	1.000056e+00	1.000016e+00	1.000004e+00	1.000001e+00	1.000000e+00	1.000000e+00	1.000000e+00	1.000000e+00	1.000000e+00	1.000000e+00	1.000000e+00	1.000000e+00	1.000000e+00	1.000000e+00	1.000000e+00	1.000000e+00	1.000000e+00	1.000000e+00	1.000000e+00	1.000000e+00	1.000000e+00	1.000000e+00	1.000000e+00	1.000000e+00	1.000000e+00	1.000000e+00	1.000000e+00	1.000000e+00	1.000000e+00	1.000000e+00	1.000000e+00	1.000000e+00	1.000000e+00	1.000000e+00	1.000000e+00	1.000000e+00	1.000000e+00	1.000000e+00	1.000000e+00	1.000000e+00	1.000000e+00	1.000000e+00	1.000000e+00	1.000000e+00	1.000000e+00	1.000000e+00	1.000000e+00	1.000000e+00	1.000000e+00	1.000000e+00	1.000000e+00	1.000000e+00	1.000000e+00	1.000000e+00	1.000000e+00	1.000000e+00	1.000000e+00	1.000000e+00	1.000000e+00	1.002078e+00	1.002188e+00	1.005987e+00	1.014248e+00	1.027662e+00	1.038464e+00	1.042582e+00	1.043599e+00	1.043516e+00	1.039915e+00	1.029682e+00	1.016442e+00	1.005266e+00	9.966958e-01	9.900041e-01	9.848405e-01	9.810397e-01	9.783407e-01	9.765442e-01	9.754723e-01	9.750920e-01	9.754723e-01	9.765442e-01	9.783407e-01	9.810397e-01	9.848405e-01	9.900041e-01	9.966958e-01	1.005266e+00	1.016442e+00	1.029682e+00	1.039915e+00	1.043517e+00	1.043600e+00	1.042585e+00	1.038467e+00	1.027651e+00	1.014204e+00	1.005717e+00	1.002199e+00	1.000857e+00	1.000317e+00	1.000106e+00	1.000031e+00	1.000008e+00	1.000002e+00	1.000000e+00	1.000000e+00	1.000000e+00	1.000000e+00	1.000000e+00	1.000000e+00	1.000000e+00	1.000000e+00	1.000000e+00	1.000000e+00	1.000000e+00	1.000000e+00	1.000000e+00	1.000000e+00	1.000000e+00	1.000000e+00	1.000000e+00	1.000000e+00	1.000000e+00	1.000000e+00	1.000000e+00	1.000000e+00	1.000000e+00	1.000000e+00	1.000000e+00	1.000000e+00	1.000000e+00	1.000000e+00	1.000000e+00	1.000000e+00	1.000000e+00	1.000000e+00	1.000000e+00	1.000000e+00	1.000000e+00	1.000000e+00	1.000000e+00	1.000000e+00	1.000000e+00	1.000000e+00	1.000000e+00	1.000000e+00	1.000000e+00	1.000000e+00	1.000000e+00	1.000000e+00	1.000000e+00	1.000000e+00	1.000000e+00	1.000000e+00	1.000000e+00	1.000000e+00	1.000000e+00	1.000000e+00	1.000000e+00	1.003470e+00	1.003767e+00	1.010587e+00	1.022525e+00	1.035328e+00	1.041671e+00	1.043362e+00	1.043312e+00	1.040293e+00	1.030446e+00	1.016442e+00	1.003922e+00	9.942701e-01	9.868869e-01	9.813615e-01	9.775191e-01	9.750111e-01	9.734293e-01	9.725033e-01	9.724098e-01	9.725501e-01	9.724098e-01	9.725033e-01	9.734293e-01	9.750111e-01	9.775191e-01	9.813615e-01	9.868869e-01	9.942701e-01	1.003922e+00	1.016442e+00	1.030447e+00	1.040294e+00	1.043314e+00	1.043363e+00	1.041669e+00	1.035305e+00	1.022441e+00	1.010148e+00	1.003808e+00	1.001415e+00	1.000527e+00	1.000183e+00	1.000057e+00	1.000016e+00	1.000004e+00	1.000001e+00	1.000000e+00	1.000000e+00	1.000000e+00	1.000000e+00	1.000000e+00	1.000000e+00	1.000000e+00	1.000000e+00	1.000000e+00	1.000000e+00	1.000000e+00	1.000000e+00	1.000000e+00	1.000000e+00	1.000000e+00	1.000000e+00	1.000000e+00	1.000000e+00	1.000000e+00	1.000000e+00	1.000000e+00	1.000000e+00	1.000000e+00	1.000000e+00	1.000000e+00	1.000000e+00	1.000000e+00	1.000000e+00	1.000000e+00	1.000000e+00	1.000000e+00	1.000000e+00	1.000000e+00	1.000000e+00	1.000000e+00	1.000000e+00	1.000000e+00	1.000000e+00	1.000000e+00	1.000000e+00	1.000000e+00	1.000000e+00	1.000000e+00	1.000000e+00	1.000000e+00	1.000000e+00	1.000000e+00	1.000000e+00	1.000000e+00	1.000000e+00	1.000000e+00	1.000000e+00	1.000000e+00	1.000000e+00	1.005703e+00	1.006366e+00	1.016955e+00	1.030271e+00	1.039723e+00	1.042764e+00	1.042983e+00	1.040894e+00	1.032550e+00	1.018883e+00	1.005266e+00	9.942701e-01	9.858839e-01	9.798046e-01	9.758560e-01	9.736084e-01	9.723538e-01	9.716087e-01	9.717019e-01	9.720486e-01	9.722409e-01	9.720486e-01	9.717019e-01	9.716087e-01	9.723538e-01	9.736084e-01	9.758560e-01	9.798046e-01	9.858839e-01	9.942701e-01	1.005266e+00	1.018883e+00	1.032551e+00	1.040896e+00	1.042984e+00	1.042753e+00	1.039678e+00	1.030127e+00	1.016307e+00	1.006470e+00	1.002298e+00	1.000828e+00	1.000292e+00	1.000094e+00	1.000027e+00	1.000007e+00	1.000002e+00	1.000000e+00	1.000000e+00	1.000000e+00	1.000000e+00	1.000000e+00	1.000000e+00	1.000000e+00	1.000000e+00	1.000000e+00	1.000000e+00	1.000000e+00	1.000000e+00	1.000000e+00	1.000000e+00	1.000000e+00	1.000000e+00	1.000000e+00	1.000000e+00	1.000000e+00	1.000000e+00	1.000000e+00	1.000000e+00	1.000000e+00	1.000000e+00	1.000000e+00	1.000000e+00	1.000000e+00	1.000000e+00	1.000000e+00	1.000000e+00	1.000000e+00	1.000000e+00	1.000000e+00	1.000000e+00	1.000000e+00	1.000000e+00	1.000000e+00	1.000000e+00	1.000000e+00	1.000000e+00	1.000000e+00	1.000000e+00	1.000000e+00	1.000000e+00	1.000000e+00	1.000000e+00	1.000000e+00	1.000000e+00	1.000000e+00	1.000000e+00	1.000000e+00	1.000000e+00	1.000000e+00	1.000000e+00	1.009099e+00	1.010221e+00	1.023876e+00	1.035884e+00	1.041524e+00	1.042511e+00	1.041377e+00	1.035468e+00	1.023369e+00	1.009180e+00	9.966958e-01	9.868869e-01	9.798046e-01	9.753807e-01	9.731580e-01	9.721124e-01	9.714418e-01	9.714522e-01	9.720699e-01	9.726886e-01	9.729299e-01	9.726886e-01	9.720699e-01	9.714522e-01	9.714418e-01	9.721124e-01	9.731580e-01	9.753807e-01	9.798046e-01	9.868870e-01	9.966960e-01	1.009180e+00	1.023370e+00	1.035470e+00	1.041373e+00	1.042500e+00	1.041427e+00	1.035677e+00	1.023013e+00	1.010339e+00	1.003669e+00	1.001257e+00	1.000438e+00	1.000145e+00	1.000043e+00	1.000011e+00	1.000003e+00	1.000001e+00	1.000000e+00	1.000000e+00	1.000000e+00	1.000000e+00	1.000000e+00	1.000000e+00	1.000000e+00	1.000000e+00	1.000000e+00	1.000000e+00	1.000000e+00	1.000000e+00	1.000000e+00	1.000000e+00	1.000000e+00	1.000000e+00	1.000000e+00	1.000000e+00	1.000000e+00	1.000000e+00	1.000000e+00	1.000000e+00	1.000000e+00	1.000000e+00	1.000000e+00	1.000000e+00	1.000000e+00	1.000000e+00	1.000000e+00	1.000000e+00	1.000000e+00	1.000000e+00	1.000000e+00	1.000000e+00	1.000000e+00	1.000000e+00	1.000000e+00	1.000000e+00	1.000000e+00	1.000000e+00	1.000000e+00	1.000000e+00	1.000000e+00	1.000000e+00	1.000000e+00	1.000000e+00	1.000000e+00	1.000000e+00	1.000000e+00	1.000000e+00	1.000000e+00	1.000000e+00	1.000000e+00	1.013730e+00	1.015095e+00	1.029970e+00	1.038940e+00	1.041869e+00	1.041421e+00	1.038330e+00	1.029039e+00	1.015306e+00	1.001554e+00	9.900041e-01	9.813615e-01	9.758560e-01	9.731580e-01	9.720910e-01	9.714803e-01	9.713280e-01	9.724299e-01	9.740612e-01	9.751330e-01	9.754949e-01	9.751330e-01	9.740612e-01	9.724299e-01	9.713280e-01	9.714803e-01	9.720910e-01	9.731580e-01	9.758560e-01	9.813616e-01	9.900044e-01	1.001555e+00	1.015308e+00	1.029041e+00	1.038327e+00	1.041388e+00	1.041766e+00	1.038624e+00	1.028857e+00	1.015047e+00	1.005643e+00	1.001863e+00	1.000625e+00	1.000208e+00	1.000064e+00	1.000017e+00	1.000004e+00	1.000001e+00	1.000000e+00	1.000000e+00	1.000000e+00	1.000000e+00	1.000000e+00	1.000000e+00	1.000000e+00	1.000000e+00	1.000000e+00	1.000000e+00	1.000000e+00	1.000000e+00	1.000000e+00	1.000000e+00	1.000000e+00	1.000000e+00	1.000000e+00	1.000000e+00	1.000000e+00	1.000000e+00	1.000000e+00	1.000000e+00	1.000000e+00	1.000000e+00	1.000000e+00	1.000000e+00	1.000000e+00	1.000000e+00	1.000000e+00	1.000000e+00	1.000000e+00	1.000000e+00	1.000000e+00	1.000000e+00	1.000000e+00	1.000000e+00	1.000000e+00	1.000000e+00	1.000000e+00	1.000000e+00	1.000000e+00	1.000000e+00	1.000000e+00	1.000000e+00	1.000000e+00	1.000000e+00	1.000000e+00	1.000000e+00	1.000000e+00	1.000000e+00	1.000000e+00	1.000000e+00	1.000000e+00	1.019241e+00	1.020294e+00	1.034468e+00	1.040310e+00	1.041140e+00	1.039961e+00	1.034532e+00	1.022960e+00	1.008746e+00	9.954973e-01	9.848405e-01	9.775191e-01	9.736084e-01	9.721124e-01	9.714803e-01	9.712556e-01	9.726009e-01	9.753177e-01	9.775098