# vtk DataFile Version 3.0
vtk output
ASCII
DATASET STRUCTURED_GRID
DIMENSIONS 101 101 1
POINTS 10201 double
0.000000e+00	0.000000e+00	0.0	1.000000e-02	0.000000e+00	0.0	2.000000e-02	0.000000e+00	0.0	3.000000e-02	0.000000e+00	0.0	4.000000e-02	0.000000e+00	0.0	5.000000e-02	0.000000e+00	0.0	6.000000e-02	0.000000e+00	0.0	7.000000e-02	0.000000e+00	0.0	8.000000e-02	0.000000e+00	0.0	9.000000e-02	0.000000e+00	0.0	1.000000e-01	0.000000e+00	0.0	1.100000e-01	0.000000e+00	0.0	1.200000e-01	0.000000e+00	0.0	1.300000e-01	0.000000e+00	0.0	1.400000e-01	0.000000e+00	0.0	1.500000e-01	0.000000e+00	0.0	1.600000e-01	0.000000e+00	0.0	1.700000e-01	0.000000e+00	0.0	1.800000e-01	0.000000e+00	0.0	1.900000e-01	0.000000e+00	0.0	2.000000e-01	0.000000e+00	0.0	2.100000e-01	0.000000e+00	0.0	2.200000e-01	0.000000e+00	0.0	2.300000e-01	0.000000e+00	0.0	2.400000e-01	0.000000e+00	0.0	2.500000e-01	0.000000e+00	0.0	2.600000e-01	0.000000e+00	0.0	2.700000e-01	0.000000e+00	0.0	2.800000e-01	0.000000e+00	0.0	2.900000e-01	0.000000e+00	0.0	3.000000e-01	0.000000e+00	0.0	3.100000e-01	0.000000e+00	0.0	3.200000e-01	0.000000e+00	0.0	3.300000e-01	0.000000e+00	0.0	3.400000e-01	0.000000e+00	0.0	3.500000e-01	0.000000e+00	0.0	3.600000e-01	0.000000e+00	0.0	3.700000e-01	0.000000e+00	0.0	3.800000e-01	0.000000e+00	0.0	3.900000e-01	0.000000e+00	0.0	4.000000e-01	0.000000e+00	0.0	4.100000e-01	0.000000e+00	0.0	4.200000e-01	0.000000e+00	0.0	4.300000e-01	0.000000e+00	0.0	4.400000e-01	0.000000e+00	0.0	4.500000e-01	0.000000e+00	0.0	4.600000e-01	0.000000e+00	0.0	4.700000e-01	0.000000e+00	0.0	4.800000e-01	0.000000e+00	0.0	4.900000e-01	0.000000e+00	0.0	5.000000e-01	0.000000e+00	0.0	5.100000e-01	0.000000e+00	0.0	5.200000e-01	0.000000e+00	0.0	5.300000e-01	0.000000e+00	0.0	5.400000e-01	0.000000e+00	0.0	5.500000e-01	0.000000e+00	0.0	5.600000e-01	0.000000e+00	0.0	5.700000e-01	0.000000e+00	0.0	5.800000e-01	0.000000e+00	0.0	5.900000e-01	0.000000e+00	0.0	6.000000e-01	0.000000e+00	0.0	6.100000e-01	0.000000e+00	0.0	6.200000e-01	0.000000e+00	0.0	6.300000e-01	0.000000e+00	0.0	6.400000e-01	0.000000e+00	0.0	6.500000e-01	0.000000e+00	0.0	6.600000e-01	0.000000e+00	0.0	6.700000e-01	0.000000e+00	0.0	6.800000e-01	0.000000e+00	0.0	6.900000e-01	0.000000e+00	0.0	7.000000e-01	0.000000e+00	0.0	7.100000e-01	0.000000e+00	0.0	7.200000e-01	0.000000e+00	0.0	7.300000e-01	0.000000e+00	0.0	7.400000e-01	0.000000e+00	0.0	7.500000e-01	0.000000e+00	0.0	7.600000e-01	0.000000e+00	0.0	7.700000e-01	0.000000e+00	0.0	7.800000e-01	0.000000e+00	0.0	7.900000e-01	0.000000e+00	0.0	8.000000e-01	0.000000e+00	0.0	8.100000e-01	0.000000e+00	0.0	8.200000e-01	0.000000e+00	0.0	8.300000e-01	0.000000e+00	0.0	8.400000e-01	0.000000e+00	0.0	8.500000e-01	0.000000e+00	0.0	8.600000e-01	0.000000e+00	0.0	8.700000e-01	0.000000e+00	0.0	8.800000e-01	0.000000e+00	0.0	8.900000e-01	0.000000e+00	0.0	9.000000e-01	0.000000e+00	0.0	9.100000e-01	0.000000e+00	0.0	9.200000e-01	0.000000e+00	0.0	9.300000e-01	0.000000e+00	0.0	9.400000e-01	0.000000e+00	0.0	9.500000e-01	0.000000e+00	0.0	9.600000e-01	0.000000e+00	0.0	9.700000e-01	0.000000e+00	0.0	9.800000e-01	0.000000e+00	0.0	9.900000e-01	0.000000e+00	0.0	1.000000e+00	0.000000e+00	0.0	0.000000e+00	1.000000e-02	0.0	1.000000e-02	1.000000e-02	0.0	2.000000e-02	1.000000e-02	0.0	3.000000e-02	1.000000e-02	0.0	4.000000e-02	1.000000e-02	0.0	5.000000e-02	1.000000e-02	0.0	6.000000e-02	1.000000e-02	0.0	7.000000e-02	1.000000e-02	0.0	8.000000e-02	1.000000e-02	0.0	9.000000e-02	1.000000e-02	0.0	1.000000e-01	1.000000e-02	0.0	1.100000e-01	1.000000e-02	0.0	1.200000e-01	1.000000e-02	0.0	1.300000e-01	1.000000e-02	0.0	1.400000e-01	1.000000e-02	0.0	1.500000e-01	1.000000e-02	0.0	1.600000e-01	1.000000e-02	0.0	1.700000e-01	1.000000e-02	0.0	1.800000e-01	1.000000e-02	0.0	1.900000e-01	1.000000e-02	0.0	2.000000e-01	1.000000e-02	0.0	2.100000e-01	1.000000e-02	0.0	2.200000e-01	1.000000e-02	0.0	2.300000e-01	1.000000e-02	0.0	2.400000e-01	1.000000e-02	0.0	2.500000e-01	1.000000e-02	0.0	2.600000e-01	1.000000e-02	0.0	2.700000e-01	1.000000e-02	0.0	2.800000e-01	1.000000e-02	0.0	2.900000e-01	1.000000e-02	0.0	3.000000e-01	1.000000e-02	0.0	3.100000e-01	1.000000e-02	0.0	3.200000e-01	1.000000e-02	0.0	3.300000e-01	1.000000e-02	0.0	3.400000e-01	1.000000e-02	0.0	3.500000e-01	1.000000e-02	0.0	3.600000e-01	1.000000e-02	0.0	3.700000e-01	1.000000e-02	0.0	3.800000e-01	1.000000e-02	0.0	3.900000e-01	1.000000e-02	0.0	4.000000e-01	1.000000e-02	0.0	4.100000e-01	1.000000e-02	0.0	4.200000e-01	1.000000e-02	0.0	4.300000e-01	1.000000e-02	0.0	4.400000e-01	1.000000e-02	0.0	4.500000e-01	1.000000e-02	0.0	4.600000e-01	1.000000e-02	0.0	4.700000e-01	1.000000e-02	0.0	4.800000e-01	1.000000e-02	0.0	4.900000e-01	1.000000e-02	0.0	5.000000e-01	1.000000e-02	0.0	5.100000e-01	1.000000e-02	0.0	5.200000e-01	1.000000e-02	0.0	5.300000e-01	1.000000e-02	0.0	5.400000e-01	1.000000e-02	0.0	5.500000e-01	1.000000e-02	0.0	5.600000e-01	1.000000e-02	0.0	5.700000e-01	1.000000e-02	0.0	5.800000e-01	1.000000e-02	0.0	5.900000e-01	1.000000e-02	0.0	6.000000e-01	1.000000e-02	0.0	6.100000e-01	1.000000e-02	0.0	6.200000e-01	1.000000e-02	0.0	6.300000e-01	1.000000e-02	0.0	6.400000e-01	1.000000e-02	0.0	6.500000e-01	1.000000e-02	0.0	6.600000e-01	1.000000e-02	0.0	6.700000e-01	1.000000e-02	0.0	6.800000e-01	1.000000e-02	0.0	6.900000e-01	1.000000e-02	0.0	7.000000e-01	1.000000e-02	0.0	7.100000e-01	1.000000e-02	0.0	7.200000e-01	1.000000e-02	0.0	7.300000e-01	1.000000e-02	0.0	7.400000e-01	1.000000e-02	0.0	7.500000e-01	1.000000e-02	0.0	7.600000e-01	1.000000e-02	0.0	7.700000e-01	1.000000e-02	0.0	7.800000e-01	1.000000e-02	0.0	7.900000e-01	1.000000e-02	0.0	8.000000e-01	1.000000e-02	0.0	8.100000e-01	1.000000e-02	0.0	8.200000e-01	1.000000e-02	0.0	8.300000e-01	1.000000e-02	0.0	8.400000e-01	1.000000e-02	0.0	8.500000e-01	1.000000e-02	0.0	8.600000e-01	1.000000e-02	0.0	8.700000e-01	1.000000e-02	0.0	8.800000e-01	1.000000e-02	0.0	8.900000e-01	1.000000e-02	0.0	9.000000e-01	1.000000e-02	0.0	9.100000e-01	1.000000e-02	0.0	9.200000e-01	1.000000e-02	0.0	9.300000e-01	1.000000e-02	0.0	9.400000e-01	1.000000e-02	0.0	9.500000e-01	1.000000e-02	0.0	9.600000e-01	1.000000e-02	0.0	9.700000e-01	1.000000e-02	0.0	9.800000e-01	1.000000e-02	0.0	9.900000e-01	1.000000e-02	0.0	1.000000e+00	1.000000e-02	0.0	0.000000e+00	2.000000e-02	0.0	1.000000e-02	2.000000e-02	0.0	2.000000e-02	2.000000e-02	0.0	3.000000e-02	2.000000e-02	0.0	4.000000e-02	2.000000e-02	0.0	5.000000e-02	2.000000e-02	0.0	6.000000e-02	2.000000e-02	0.0	7.000000e-02	2.000000e-02	0.0	8.000000e-02	2.000000e-02	0.0	9.000000e-02	2.000000e-02	0.0	1.000000e-01	2.000000e-02	0.0	1.100000e-01	2.000000e-02	0.0	1.200000e-01	2.000000e-02	0.0	1.300000e-01	2.000000e-02	0.0	1.400000e-01	2.000000e-02	0.0	1.500000e-01	2.000000e-02	0.0	1.600000e-01	2.000000e-02	0.0	1.700000e-01	2.000000e-02	0.0	1.800000e-01	2.000000e-02	0.0	1.900000e-01	2.000000e-02	0.0	2.000000e-01	2.000000e-02	0.0	2.100000e-01	2.000000e-02	0.0	2.200000e-01	2.000000e-02	0.0	2.300000e-01	2.000000e-02	0.0	2.400000e-01	2.000000e-02	0.0	2.500000e-01	2.000000e-02	0.0	2.600000e-01	2.000000e-02	0.0	2.700000e-01	2.000000e-02	0.0	2.800000e-01	2.000000e-02	0.0	2.900000e-01	2.000000e-02	0.0	3.000000e-01	2.000000e-02	0.0	3.100000e-01	2.000000e-02	0.0	3.200000e-01	2.000000e-02	0.0	3.300000e-01	2.000000e-02	0.0	3.400000e-01	2.000000e-02	0.0	3.500000e-01	2.000000e-02	0.0	3.600000e-01	2.000000e-02	0.0	3.700000e-01	2.000000e-02	0.0	3.800000e-01	2.000000e-02	0.0	3.900000e-01	2.000000e-02	0.0	4.000000e-01	2.000000e-02	0.0	4.100000e-01	2.000000e-02	0.0	4.200000e-01	2.000000e-02	0.0	4.300000e-01	2.000000e-02	0.0	4.400000e-01	2.000000e-02	0.0	4.500000e-01	2.000000e-02	0.0	4.600000e-01	2.000000e-02	0.0	4.700000e-01	2.000000e-02	0.0	4.800000e-01	2.000000e-02	0.0	4.900000e-01	2.000000e-02	0.0	5.000000e-01	2.000000e-02	0.0	5.100000e-01	2.000000e-02	0.0	5.200000e-01	2.000000e-02	0.0	5.300000e-01	2.000000e-02	0.0	5.400000e-01	2.000000e-02	0.0	5.500000e-01	2.000000e-02	0.0	5.600000e-01	2.000000e-02	0.0	5.700000e-01	2.000000e-02	0.0	5.800000e-01	2.000000e-02	0.0	5.900000e-01	2.000000e-02	0.0	6.000000e-01	2.000000e-02	0.0	6.100000e-01	2.000000e-02	0.0	6.200000e-01	2.000000e-02	0.0	6.300000e-01	2.000000e-02	0.0	6.400000e-01	2.000000e-02	0.0	6.500000e-01	2.000000e-02	0.0	6.600000e-01	2.000000e-02	0.0	6.700000e-01	2.000000e-02	0.0	6.800000e-01	2.000000e-02	0.0	6.900000e-01	2.000000e-02	0.0	7.000000e-01	2.000000e-02	0.0	7.100000e-01	2.000000e-02	0.0	7.200000e-01	2.000000e-02	0.0	7.300000e-01	2.000000e-02	0.0	7.400000e-01	2.000000e-02	0.0	7.500000e-01	2.000000e-02	0.0	7.600000e-01	2.000000e-02	0.0	7.700000e-01	2.000000e-02	0.0	7.800000e-01	2.000000e-02	0.0	7.900000e-01	2.000000e-02	0.0	8.000000e-01	2.000000e-02	0.0	8.100000e-01	2.000000e-02	0.0	8.200000e-01	2.000000e-02	0.0	8.300000e-01	2.000000e-02	0.0	8.400000e-01	2.000000e-02	0.0	8.500000e-01	2.000000e-02	0.0	8.600000e-01	2.000000e-02	0.0	8.700000e-01	2.000000e-02	0.0	8.800000e-01	2.000000e-02	0.0	8.900000e-01	2.000000e-02	0.0	9.000000e-01	2.000000e-02	0.0	9.100000e-01	2.000000e-02	0.0	9.200000e-01	2.000000e-02	0.0	9.300000e-01	2.000000e-02	0.0	9.400000e-01	2.000000e-02	0.0	9.500000e-01	2.000000e-02	0.0	9.600000e-01	2.000000e-02	0.0	9.700000e-01	2.000000e-02	0.0	9.800000e-01	2.000000e-02	0.0	9.900000e-01	2.000000e-02	0.0	1.000000e+00	2.000000e-02	0.0	0.000000e+00	3.000000e-02	0.0	1.000000e-02	3.000000e-02	0.0	2.000000e-02	3.000000e-02	0.0	3.000000e-02	3.000000e-02	0.0	4.000000e-02	3.000000e-02	0.0	5.000000e-02	3.000000e-02	0.0	6.000000e-02	3.000000e-02	0.0	7.000000e-02	3.000000e-02	0.0	8.000000e-02	3.000000e-02	0.0	9.000000e-02	3.000000e-02	0.0	1.000000e-01	3.000000e-02	0.0	1.100000e-01	3.000000e-02	0.0	1.200000e-01	3.000000e-02	0.0	1.300000e-01	3.000000e-02	0.0	1.400000e-01	3.000000e-02	0.0	1.500000e-01	3.000000e-02	0.0	1.600000e-01	3.000000e-02	0.0	1.700000e-01	3.000000e-02	0.0	1.800000e-01	3.000000e-02	0.0	1.900000e-01	3.000000e-02	0.0	2.000000e-01	3.000000e-02	0.0	2.100000e-01	3.000000e-02	0.0	2.200000e-01	3.000000e-02	0.0	2.300000e-01	3.000000e-02	0.0	2.400000e-01	3.000000e-02	0.0	2.500000e-01	3.000000e-02	0.0	2.600000e-01	3.000000
[...]
POINT_DATA 10201

SCALARS Height double 1
LOOKUP_TABLE default
9.984651e-01	9.984738e-01	9.984814e-01	9.984837e-01	9.984948e-01	9.985045e-01	9.985028e-01	9.984930e-01	9.984784e-01	9.984611e-01	9.984431e-01	9.984261e-01	9.984109e-01	9.983986e-01	9.983884e-01	9.983785e-01	9.983675e-01	9.983552e-01	9.983415e-01	9.983271e-01	9.983101e-01	9.982849e-01	9.982536e-01	9.982196e-01	9.981845e-01	9.981472e-01	9.981083e-01	9.980662e-01	9.980208e-01	9.979710e-01	9.979164e-01	9.978566e-01	9.977916e-01	9.977213e-01	9.976453e-01	9.975632e-01	9.974732e-01	9.973742e-01	9.972645e-01	9.971427e-01	9.970075e-01	9.968573e-01	9.966895e-01	9.964996e-01	9.962792e-01	9.960123e-01	9.956703e-01	9.952061e-01	9.945500e-01	9.936176e-01	9.923468e-01	9.907756e-01	9.891105e-01	9.876852e-01	9.867499e-01	9.863059e-01	9.862260e-01	9.865403e-01	9.878435e-01	9.905206e-01	9.945271e-01	9.995698e-01	1.005237e+00	1.011081e+00	1.016524e+00	1.020856e+00	1.023566e+00	1.024734e+00	1.024803e+00	1.023317e+00	1.018677e+00	1.011407e+00	1.004617e+00	1.000550e+00	9.988092e-01	9.982102e-01	9.980257e-01	9.979651e-01	9.979310e-01	9.978856e-01	9.978051e-01	9.976773e-01	9.975114e-01	9.973231e-01	9.971485e-01	9.970703e-01	9.973380e-01	9.986217e-01	1.002045e+00	1.007899e+00	1.013835e+00	1.016727e+00	1.016343e+00	1.014695e+00	1.012265e+00	1.008748e+00	1.004129e+00	9.988510e-01	9.940590e-01	9.912222e-01	9.887840e-01	9.984801e-01	9.984776e-01	9.984870e-01	9.984886e-01	9.984973e-01	9.985038e-01	9.985041e-01	9.984943e-01	9.984787e-01	9.984605e-01	9.984415e-01	9.984235e-01	9.984072e-01	9.983936e-01	9.983823e-01	9.983709e-01	9.983581e-01	9.983440e-01	9.983278e-01	9.983097e-01	9.982914e-01	9.982672e-01	9.982394e-01	9.982089e-01	9.981745e-01	9.981407e-01	9.981030e-01	9.980621e-01	9.980173e-01	9.979679e-01	9.979136e-01	9.978540e-01	9.977890e-01	9.977186e-01	9.976423e-01	9.975596e-01	9.974692e-01	9.973698e-01	9.972600e-01	9.971371e-01	9.970010e-01	9.968493e-01	9.966795e-01	9.964873e-01	9.962643e-01	9.959947e-01	9.956497e-01	9.951821e-01	9.945226e-01	9.935879e-01	9.923155e-01	9.907391e-01	9.890549e-01	9.875831e-01	9.866123e-01	9.862408e-01	9.862066e-01	9.865394e-01	9.878086e-01	9.904618e-01	9.944873e-01	9.995617e-01	1.005264e+00	1.011132e+00	1.016620e+00	1.021097e+00	1.023920e+00	1.024831e+00	1.024778e+00	1.023396e+00	1.019029e+00	1.011706e+00	1.004506e+00	1.000244e+00	9.986013e-01	9.981205e-01	9.979922e-01	9.979496e-01	9.979200e-01	9.978765e-01	9.977968e-01	9.976682e-01	9.975006e-01	9.973063e-01	9.971093e-01	9.969719e-01	9.971170e-01	9.983028e-01	1.001925e+00	1.008179e+00	1.014136e+00	1.016755e+00	1.016282e+00	1.014748e+00	1.012504e+00	1.008856e+00	1.004199e+00	9.988986e-01	9.940318e-01	9.912223e-01	9.887521e-01	9.984874e-01	9.984848e-01	9.984967e-01	9.984963e-01	9.985037e-01	9.985090e-01	9.985084e-01	9.984978e-01	9.984826e-01	9.984641e-01	9.984452e-01	9.984268e-01	9.984098e-01	9.983953e-01	9.983816e-01	9.983695e-01	9.983576e-01	9.983444e-01	9.983286e-01	9.983124e-01	9.982933e-01	9.982700e-01	9.982383e-01	9.982054e-01	9.981714e-01	9.981348e-01	9.980982e-01	9.980578e-01	9.980136e-01	9.979650e-01	9.979114e-01	9.978526e-01	9.977886e-01	9.977191e-01	9.976436e-01	9.975616e-01	9.974721e-01	9.973738e-01	9.972651e-01	9.971437e-01	9.970080e-01	9.968556e-01	9.966843e-01	9.964898e-01	9.962640e-01	9.959906e-01	9.956394e-01	9.951626e-01	9.944918e-01	9.935508e-01	9.922905e-01	9.907469e-01	9.890908e-01	9.876176e-01	9.866839e-01	9.863897e-01	9.863856e-01	9.867471e-01	9.880194e-01	9.906276e-01	9.946127e-01	9.996290e-01	1.005250e+00	1.011024e+00	1.016497e+00	1.021066e+00	1.023785e+00	1.024485e+00	1.024406e+00	1.023091e+00	1.018996e+00	1.011953e+00	1.004696e+00	1.000250e+00	9.985575e-01	9.980950e-01	9.979801e-01	9.979413e-01	9.979126e-01	9.978701e-01	9.977919e-01	9.976645e-01	9.974984e-01	9.973051e-01	9.971014e-01	9.969416e-01	9.970492e-01	9.982626e-01	1.002083e+00	1.008413e+00	1.014076e+00	1.016433e+00	1.015923e+00	1.014457e+00	1.012438e+00	1.008928e+00	1.004253e+00	9.990208e-01	9.942492e-01	9.914927e-01	9.890497e-01	9.984848e-01	9.984819e-01	9.984930e-01	9.984921e-01	9.984985e-01	9.985032e-01	9.985022e-01	9.984915e-01	9.984749e-01	9.984580e-01	9.984414e-01	9.984250e-01	9.984089e-01	9.983941e-01	9.983818e-01	9.983692e-01	9.983575e-01	9.983440e-01	9.983307e-01	9.983136e-01	9.982937e-01	9.982699e-01	9.982365e-01	9.982040e-01	9.981690e-01	9.981326e-01	9.980947e-01	9.980533e-01	9.980084e-01	9.979595e-01	9.979059e-01	9.978469e-01	9.977826e-01	9.977129e-01	9.976370e-01	9.975546e-01	9.974647e-01	9.973663e-01	9.972573e-01	9.971354e-01	9.969982e-01	9.968434e-01	9.966686e-01	9.964697e-01	9.962382e-01	9.959568e-01	9.955943e-01	9.951004e-01	9.944075e-01	9.934454e-01	9.921794e-01	9.906462e-01	9.889954e-01	9.875482e-01	9.867320e-01	9.865340e-01	9.865475e-01	9.869561e-01	9.882838e-01	9.909217e-01	9.948792e-01	9.998530e-01	1.005385e+00	1.011094e+00	1.016611e+00	1.021166e+00	1.023598e+00	1.024150e+00	1.024040e+00	1.022742e+00	1.018816e+00	1.011997e+00	1.004816e+00	1.000322e+00	9.985755e-01	9.980920e-01	9.979699e-01	9.979276e-01	9.978966e-01	9.978528e-01	9.977744e-01	9.976473e-01	9.974822e-01	9.972896e-01	9.970837e-01	9.969154e-01	9.970132e-01	9.982490e-01	1.002123e+00	1.008387e+00	1.013817e+00	1.016001e+00	1.015454e+00	1.014037e+00	1.012322e+00	1.009170e+00	1.004533e+00	9.993048e-01	9.946313e-01	9.919858e-01	9.896210e-01	9.984875e-01	9.984838e-01	9.984936e-01	9.984912e-01	9.984960e-01	9.984992e-01	9.984962e-01	9.984836e-01	9.984668e-01	9.984506e-01	9.984351e-01	9.984194e-01	9.984038e-01	9.983894e-01	9.983766e-01	9.983648e-01	9.983530e-01	9.983402e-01	9.983269e-01	9.983099e-01	9.982899e-01	9.982650e-01	9.982312e-01	9.981983e-01	9.981626e-01	9.981259e-01	9.980871e-01	9.980449e-01	9.979998e-01	9.979506e-01	9.978964e-01	9.978373e-01	9.977730e-01	9.977033e-01	9.976275e-01	9.975451e-01	9.974553e-01	9.973566e-01	9.972470e-01	9.971243e-01	9.969853e-01	9.968282e-01	9.966499e-01	9.964461e-01	9.962074e-01	9.959147e-01	9.955359e-01	9.950182e-01	9.942959e-01	9.933077e-01	9.920279e-01	9.904914e-01	9.888502e-01	9.875082e-01	9.868644e-01	9.867322e-01	9.867701e-01	9.872399e-01	9.886422e-01	9.913226e-01	9.952645e-01	1.000154e+00	1.005584e+00	1.011265e+00	1.016804e+00	1.021173e+00	1.023286e+00	1.023709e+00	1.023583e+00	1.022293e+00	1.018495e+00	1.011924e+00	1.004956e+00	1.000479e+00	9.986547e-01	9.981112e-01	9.979647e-01	9.979131e-01	9.978775e-01	9.978309e-01	9.977518e-01	9.976260e-01	9.974634e-01	9.972711e-01	9.970645e-01	9.968982e-01	9.970165e-01	9.982994e-01	1.002140e+00	1.008182e+00	1.013378e+00	1.015428e+00	1.014857e+00	1.013529e+00	1.012125e+00	1.009408e+00	1.004945e+00	9.997502e-01	9.951989e-01	9.926755e-01	9.904207e-01	9.984891e-01	9.984837e-01	9.984926e-01	9.984895e-01	9.984926e-01	9.984938e-01	9.984886e-01	9.984745e-01	9.984573e-01	9.984425e-01	9.984286e-01	9.984138e-01	9.983985e-01	9.983843e-01	9.983718e-01	9.983599e-01	9.983477e-01	9.983354e-01	9.983213e-01	9.983042e-01	9.982847e-01	9.982587e-01	9.982254e-01	9.981920e-01	9.981555e-01	9.981191e-01	9.980799e-01	9.980375e-01	9.979917e-01	9.979416e-01	9.978869e-01	9.978272e-01	9.977626e-01	9.976926e-01	9.976168e-01	9.975344e-01	9.974442e-01	9.973445e-01	9.972334e-01	9.971085e-01	9.969670e-01	9.968068e-01	9.966247e-01	9.964152e-01	9.961674e-01	9.958603e-01	9.954575e-01	9.949100e-01	9.941544e-01	9.931362e-01	9.918281e-01	9.902692e-01	9.886712e-01	9.875100e-01	9.870433e-01	9.869585e-01	9.870373e-01	9.875936e-01	9.890977e-01	9.918362e-01	9.957483e-01	1.000530e+00	1.005879e+00	1.011556e+00	1.017029e+00	1.021088e+00	1.022892e+00	1.023202e+00	1.023050e+00	1.021740e+00	1.018024e+00	1.011737e+00	1.005098e+00	1.000697e+00	9.987761e-01	9.981485e-01	9.979628e-01	9.978964e-01	9.978541e-01	9.978036e-01	9.977229e-01	9.975991e-01	9.974400e-01	9.972478e-01	9.970417e-01	9.968844e-01	9.970487e-01	9.984011e-01	1.002138e+00	1.007829e+00	1.012723e+00	1.014672e+00	1.014148e+00	1.012990e+00	1.011884e+00	1.009607e+00	1.005453e+00	1.000405e+00	9.959772e-01	9.935650e-01	9.914439e-01	9.984863e-01	9.984814e-01	9.984890e-01	9.984865e-01	9.984874e-01	9.984861e-01	9.984794e-01	9.984656e-01	9.984498e-01	9.984359e-01	9.984225e-01	9.984080e-01	9.983931e-01	9.983790e-01	9.983663e-01	9.983542e-01	9.983412e-01	9.983288e-01	9.983138e-01	9.982961e-01	9.982774e-01	9.982494e-01	9.982168e-01	9.981831e-01	9.981460e-01	9.981100e-01	9.980707e-01	9.980281e-01	9.979813e-01	9.979302e-01	9.978744e-01	9.978142e-01	9.977492e-01	9.976791e-01	9.976032e-01	9.975205e-01	9.974298e-01	9.973285e-01	9.972152e-01	9.970876e-01	9.969433e-01	9.967799e-01	9.965936e-01	9.963776e-01	9.961185e-01	9.957922e-01	9.953610e-01	9.947724e-01	9.939720e-01	9.929129e-01	9.915666e-01	9.899901e-01	9.885016e-01	9.875695e-01	9.872574e-01	9.872200e-01	9.873589e-01	9.880270e-01	9.896550e-01	9.924545e-01	9.963210e-01	1.000993e+00	1.006275e+00	1.011932e+00	1.017233e+00	1.020910e+00	1.022401e+00	1.022630e+00	1.022439e+00	1.021079e+00	1.017427e+00	1.011479e+00	1.005244e+00	1.000971e+00	9.989450e-01	9.982063e-01	9.979654e-01	9.978774e-01	9.978267e-01	9.977720e-01	9.976888e-01	9.975674e-01	9.974114e-01	9.972199e-01	9.970159e-01	9.968755e-01	9.971077e-01	9.985383e-01	1.002115e+00	1.007350e+00	1.011874e+00	1.013738e+00	1.013357e+00	1.012440e+00	1.011631e+00	1.009759e+00	1.005992e+00	1.001210e+00	9.969572e-01	9.946527e-01	9.926725e-01	9.984776e-01	9.984758e-01	9.984821e-01	9.984807e-01	9.984788e-01	9.984752e-01	9.984679e-01	9.984557e-01	9.984416e-01	9.984288e-01	9.984161e-01	9.984026e-01	9.983885e-01	9.983753e-01	9.983626e-01	9.983502e-01	9.983363e-01	9.983222e-01	9.983066e-01	9.982879e-01	9.982679e-01	9.982393e-01	9.982074e-01	9.981729e-01	9.981362e-01	9.980995e-01	9.980597e-01	9.980163e-01	9.979686e-01	9.979165e-01	9.978597e-01	9.977986e-01	9.977333e-01	9.976629e-01	9.975869e-01	9.975032e-01	9.974110e-01	9.973079e-01	9.971919e-01	9.970611e-01	9.969133e-01	9.967458e-01	9.965542e-01	9.963300e-01	9.960567e-01	9.957068e-01	9.952405e-01	9.946081e-01	9.937574e-01	9.926392e-01	9.912356e-01	9.896776e-01	9.883667e-01	9.876896e-01	9.875170e-01	9.875184e-01	9.877395e-01	9.885513e-01	9.903188e-01	9.931711e-01	9.969795e-01	1.001556e+00	1.006780e+00	1.012354e+00	1.017387e+00	1.020643e+00	1.021837e+00	1.021989e+00	1.021744e+00	1.020312e+00	1.016728e+00	1.011155e+00	1.005391e+00	1.001287e+00	9.991566e-01	9.982846e-01	9.979731e-01	9.978563e-01	9.977938e-01	9.977341e-01	9.976500e-01	9.975306e-01	9.973763e-01	9.971860e-01	9.969861e-01	9.968716e-01	9.971890e-01	9.986910e-01	1.002057e+00	1.006768e+00	1.010861e+00	1.012662e+00	1.012509e+00	1.011878e+00	1.011352e+00	1.009854e+00	1.006536e+00	1.002146e+00	9.981415e-01	9.959403e-01	9.940905e-01	9.984686e-01	9.984705e-01	9.984741e-01	9.984730e-01	9.984687e-01	9.984632e-01	9.984561e-01	9.984451e-01	9.984323e-01	9.984200e-01	9.984074e-01	9.983946e-01	9.983816e-01	9.983691e-01	9.983570e-01	9.983435e-01	9.983297e-01	9.983144e-01	9.982978e-01	9.982805e-01	9.982585e-01	9.982296e-01	9.981974e-01	9.981617e-01	9.981271e-01	9.980890e-01	9.980481e-01	9.980033e-01	9.979543e-01	9.979010e-01	9.978435e-01	9.977817e-01	9.977160e-01	9.976444e-01	9.975674e-01	9.974826e-01	9.973885e-01	9.972830e-01	9.971641e-01	9.970297e-01	9.968779e-01	9.967057e-01	9.965075e-01	9.962725e-01	9.959807e-01	9.956019e-01	9.950940e-01	9.944089e-01	9.934950e-01	9.923029e-01	9.908462e-01	9.893566e-01	9.882895e-01	9.878654e-01	9.878053e-01	9.878524e-01	9.881888e-01	9.891716e-01	9.910857e-01	9.939805e-01	9.977266e-01	1.002218e+00	1.007369e+00	1.012790e+00	1.017474e+00	1.020282e+00	1.021192e+00	1.021281e+00	1.020967e+00	1.019450e+00	1.015952e+00	1.010794e+00	1.005537e+00	1.001632e+00	9.994044e-01	9.983834e-01	9.979853e-01	9.978331e-01	9.977564e-01	9.976903e-01	9.976044e-01	9.974882e-01	9.973349e-01	9.971454e-01	9.969512e-01	9.968724e-01	9.972863e-01	9.988424e-01	1.001955e+00	1.006093e+00	1.009713e+00	1.011471e+00	1.011627e+00	1.011310e+00	1.011022e+00	1.009873e+00	1.007086e+00	1.003196e+00	9.995102e-01	9.974245e-01	9.956944e-01	9.984596e-01	9.984633e-01	9.984636e-01	9.984637e-01	9.984582e-01	9.984522e-01	9.984449e-01	9.984351e-01	9.984231e-01	9.984112e-01	9.983988e-01	9.983857e-01	9.983732e-01	9.983605e-01	9.983477e-01	9.983342e-01	9.983195e-01	9.983044e-01	9.982867e-01	9.982677e-01	9.982458e-01	9.982172e-01	9.981846e-01	9.981522e-01	9.981157e-01	9.980775e-01	9.980353e-01	9.979892e-01	9.979392e-01	9.978852e-01	9.978270e-01	9.977645e-01	9.976976e-01	9.976243e-01	9.975455e-01	9.974584e-01	9.973616e-01	9.972531e-01	9.971306e-01	9.969922e-01	9.968358e-01	9.966582e-01	9.964520e-01	9.962036e-01	9.958899e-01	9.954765e-01	9.949205e-01	9.941727e-01	9.931790e-01	9.919003e-01	9.904111e-01	9.890601e-01	9.883093e-01	9.881108e-01	9.881089e-01	9.882294e-01	9.887209e-01	9.898928e-01	9.919499e-01	9.948777e-01	9.985648e-01	1.002969e+00	1.008011e+00	1.013205e+00	1.017469e+00	1.019813e+00	1.020471e+00	1.020504e+00	1.020110e+00	1.018509e+00	1.015129e+00	1.010420e+00	1.005683e+00	1.001996e+00	9.996818e-01	9.985008e-01	9.980020e-01	9.978073e-01	9.977144e-01	9.976409e-01	9.975522e-01	9.974378e-01	9.972862e-01	9.970968e-01	9.969095e-01	9.968732e-01	9.973883e-01	9.989776e-01	1.001798e+00	1.005338e+00	1.008460e+00	1.010205e+00	1.010739e+00	1.010735e+00	1.010630e+00	1.009816e+00	1.007640e+00	1.004339e+00	1.001034e+00	9.990981e-01	9.974893e-01	9.984485e-01	9.984527e-01	9.984516e-01	9.984530e-01	9.984468e-01	9.984405e-01	9.984330e-01	9.984244e-01	9.984134e-01	9.984021e-01	9.983902e-01	9.983776e-01	9.983644e-01	9.983513e-01	9.983377e-01	9.983234e-01	9.983082e-01	9.982917e-01	9.982734e-01	9.982529e-01	9.982298e-01	9.982018e-01	9.981714e-01	9.981380e-01	9.981019e-01	9.980627e-01	9.980197e-01	9.979730e-01	9.979225e-01	9.978684e-01	9.978097e-01	9.977466e-01	9.976786e-01	9.976030e-01	9.975214e-01	9.974311e-01	9.973308e-01	9.972183e-01	9.970914e-01	9.969480e-01	9.967861e-01	9.966016e-01	9.963856e-01	9.961207e-01	9.957802e-01	9.953264e-01	9.947134e-01	9.938892e-01	9.927975e-01	9.914258e-01	9.899523e-01	9.888493e-01	9.884327e-01	9.883888e-01	9.884303e-01	9.886705e-01	9.893503e-01	9.907200e-01	9.929060e-01	9.958597e-01	9.994928e-01	1.003796e+00	1.008674e+00	1.013565e+00	1.017345e+00	1.019232e+00	1.019676e+00	1.019661e+00	1.019174e+00	1.017503e+00	1.014284e+00	1.010055e+00	1.005833e+00	1.002370e+00	9.999810e-01	9.986343e-01	9.980233e-01	9.977795e-01	9.976679e-01	9.975860e-01	9.974937e-01	9.973798e-01	9.972282e-01	9.970376e-01	9.968555e-01	9.968662e-01	9.974828e-01	9.990816e-01	1.001585e+00	1.004516e+00	1.007143e+00	1.008937e+00	1.009885e+00	1.010160e+00	1.010155e+00	1.009705e+00	1.008185e+00	1.005539e+00	1.002685e+00	1.000951e+00	9.994781e-01	9.984359e-01	9.984396e-01	9.984383e-01	9.984407e-01	9.984341e-01	9.984275e-01	9.984199e-01	9.984128e-01	9.984032e-01	9.983923e-01	9.983813e-01	9.983688e-01	9.983555e-01	9.983414e-01	9.983274e-01	9.983128e-01	9.982973e-01	9.982802e-01	9.982612e-01	9.982390e-01	9.982146e-01	9.981871e-01	9.981564e-01	9.981222e-01	9.980853e-01	9.980450e-01	9.980011e-01	9.979537e-01	9.979029e-01	9.978485e-01	9.977899e-01	9.977263e-01	9.976569e-01	9.975794e-01	9.974948e-01	9.974008e-01	9.972962e-01	9.971789e-01	9.970467e-01	9.968975e-01	9.967291e-01	9.965359e-01	9.963073e-01	9.960218e-01	9.956489e-01	9.951465e-01	9.944642e-01	9.935447e-01	9.923355e-01	9.908755e-01	9.895202e-01	9.888017e-01	9.886455e-01	9.886651e-01	9.887908e-01	9.891964e-01	9.900909e-01	9.916555e-01	9.939508e-01	9.969238e-01	1.000507e+00	1.004682e+00	1.009330e+00	1.013829e+00	1.017092e+00	1.018538e+00	1.018810e+00	1.018748e+00	1.018167e+00	1.016451e+00	1.013447e+00	1.009716e+00	1.005991e+00	1.002748e+00	1.000293e+00	9.987788e-01	9.980478e-01	9.977498e-01	9.976176e-01	9.975268e-01	9.974299e-01	9.973148e-01	9.971610e-01	9.969648e-01	9.967854e-01	9.968436e-01	9.975536e-01	9.991335e-01	1.001297e+00	1.003639e+00	1.005835e+00	1.007766e+00	1.009079e+00	1.009529e+00	1.009640e+00	1.009563e+00	1.008697e+00	1.006763e+00	1.004432e+00	1.002963e+00	1.001644e+00	9.984218e-01	9.984250e-01	9.984232e-01	9.984261e-01	9.984194e-01	9.984132e-01	9.984059e-01	9.984000e-01	9.983921e-01	9.983824e-01	9.983714e-01	9.983591e-01	9.983451e-01	9.983301e-01	9.983159e-01	9.983010e-01	9.982847e-01	9.982666e-01	9.982455e-01	9.982228e-01	9.981973e-01	9.981692e-01	9.981382e-01	9.981043e-01	9.980668e-01	9.980258e-01	9.979809e-01	9.979325e-01	9.978808e-01	9.978252e-01	9.977662e-01	9.977020e-01	9.976304e-01	9.975513e-01	9.974636e-01	9.973659e-01	9.972568e-01	9.971344e-01	9.969967e-01	9.968414e-01	9.966654e-01	9.964624e-01	9.962167e-01	9.959063e-01	9.954930e-01	9.949306e-01	9.941627e-01	9.931217e-01	9.917703e-01	9.902843e-01	9.892237e-01	9.888939e-01	9.888821e-01	9.889542e-01	9.892162e-01	9.898256e-01	9.909504e-01	9.926986e-01	9.950824e-01	9.980630e-01	1.001593e+00	1.005613e+00	1.009936e+00	1.013953e+00	1.016668e+00	1.017734e+00	1.017879e+00	1.017766e+00	1.017096e+00	1.015379e+00	1.012646e+00	1.009418e+00	1.006159e+00	1.003120e+00	1.000605e+00	9.989260e-01	9.980720e-01	9.977176e-01	9.975638e-01	9.974637e-01	9.973616e-01	9.972431e-01	9.970824e-01	9.968769e-01	9.966955e-01	9.967936e-01	9.975836e-01	9.991059e-01	1.000926e+00	1.002734e+00	1.004654e+00	1.006756e+00	1.008258e+00	1.008847e+00	1.009128e+00	1.009402e+00	1.009168e+00	1.007974e+00	1.006237e+00	1.005101e+00	1.003951e+00	9.984083e-01	9.984092e-01	9.984075e-01	9.984096e-01	9.984036e-01	9.983981e-01	9.983915e-01	9.983869e-01	9.983802e-01	9.983710e-01	9.983605e-01	9.983479e-01	9.983331e-01	9.983171e-01	9.983019e-01	9.982871e-01	9.982707e-01	9.982522e-01	9.982310e-01	9.982069e-01	9.981798e-01	9.981513e-01	9.981200e-01	9.980856e-01	9.980474e-01	9.980056e-01	9.979597e-01	9.979097e-01	9.978566e-01	9.978006e-01	9.977392e-01	9.976729e-01	9.975995e-01	9.975178e-01	9.974266e-01	9.973246e-01	9.972106e-01	9.970829e-01	9.969398e-01	9.967787e-01	9.965952e-01	9.963799e-01	9.961158e-01	9.957717e-01	9.953075e-01	9.946701e-01	9.937919e-01	9.925932e-01	9.910977e-01	9.897562e-01	9.891544e-01	9.890667e-01	9.891086e-01	9.892874e-01	9.897320e-01	9.905746e-01	9.919314e-01	9.938457e-01	9.962981e-01	9.992684e-01	1.002728e+00	1.006554e+00	1.010458e+00	1.013879e+00	1.016082e+00	1.016829e+00	1.016887e+00	1.016721e+00	1.015978e+00	1.014321e+00	1.011912e+00	1.009179e+00	1.006339e+00	1.003481e+00	1.000905e+00	9.990668e-01	9.980911e-01	9.976800e-01	9.975044e-01	9.973951e-01	9.972873e-01	9.971618e-01	9.969902e-01	9.967703e-01	9.965787e-01	9.967050e-01	9.975503e-01	9.989696e-01	1.000442e+00	1.001885e+00	1.003742e+00	1.005868e+00	1.007390e+00	1.008155e+00	1.008644e+00	1.009252e+00	1.009595e+00	1.009127e+00	1.008057e+00	1.007323e+00	1.006356e+00	9.983956e-01	9.983929e-01	9.983912e-01	9.983925e-01	9.983874e-01	9.983826e-01	9.983765e-01	9.983729e-01	9.983673e-01	9.983580e-01	9.983476e-01	9.983354e-01	9.983204e-01	9.983033e-01	9.982878e-01	9.982714e-01	9.982545e-01	9.982352e-01	9.982132e-01	9.981877e-01	9.981590e-01	9.981302e-01	9.980990e-01	9.980643e-01	9.980260e-01	9.979837e-01	9.979366e-01	9.978865e-01	9.978323e-01	9.977731e-01	9.977099e-01	9.976411e-01	9.975648e-01	9.974798e-01	9.973843e-01	9.972771e-01	9.971572e-01	9.970237e-01	9.968748e-01	9.967081e-01	9.965167e-01	9.962868e-01	9.959963e-01	9.956105e-01	9.950826e-01	9.943495e-01	9.933195e-01	9.919217e-01	9.903950e-01	9.894439e-01	9.892323e-01	9.892447e-01	9.893608e-01	9.896974e-01	9.903628e-01	9.914558e-01	9.930340e-01	9.950911e-01	9.975919e-01	1.000529e+00	1.003881e+00	1.007456e+00	1.010850e+00	1.013619e+00	1.015318e+00	1.015837e+00	1.015831e+00	1.015617e+00	1.014839e+00	1.013309e+00	1.011268e+00	1.009004e+00	1.006532e+00	1.003824e+00	1.001184e+00	9.991938e-01	9.981026e-01	9.976368e-01	9.974393e-01	9.973193e-01	9.972041e-01	9.970689e-01	9.968811e-01	9.966380e-01	9.964241e-01	9.965559e-01	9.974160e-01	9.986938e-01	9.999026e-01	1.001264e+00	1.003124e+00	1.005036e+00	1.006531e+00	1.007480e+00	1.008214e+00	1.009144e+00	1.009979e+00	1.010187e+00	1.009849e+00	1.009565e+00	1.008809e+00	9.983829e-01	9.983764e-01	9.983755e-01	9.983753e-01	9.983706e-01	9.983661e-01	9.983609e-01	9.983583e-01	9.983525e-01	9.983437e-01	9.983328e-01	9.983209e-01	9.983057e-01	9.982884e-01	9.982709e-01	9.982534e-01	9.982361e-01	9.982162e-01	9.981940