# vtk DataFile Version 3.0
vtk output
ASCII
DATASET STRUCTURED_GRID
DIMENSIONS 101 101 1
POINTS 10201 double
0.000000e+00	0.000000e+00	0.0	1.000000e-02	0.000000e+00	0.0	2.000000e-02	0.000000e+00	0.0	3.000000e-02	0.000000e+00	0.0	4.000000e-02	0.000000e+00	0.0	5.000000e-02	0.000000e+00	0.0	6.000000e-02	0.000000e+00	0.0	7.000000e-02	0.000000e+00	0.0	8.000000e-02	0.000000e+00	0.0	9.000000e-02	0.000000e+00	0.0	1.000000e-01	0.000000e+00	0.0	1.100000e-01	0.000000e+00	0.0	1.200000e-01	0.000000e+00	0.0	1.300000e-01	0.000000e+00	0.0	1.400000e-01	0.000000e+00	0.0	1.500000e-01	0.000000e+00	0.0	1.600000e-01	0.000000e+00	0.0	1.700000e-01	0.000000e+00	0.0	1.800000e-01	0.000000e+00	0.0	1.900000e-01	0.000000e+00	0.0	2.000000e-01	0.000000e+00	0.0	2.100000e-01	0.000000e+00	0.0	2.200000e-01	0.000000e+00	0.0	2.300000e-01	0.000000e+00	0.0	2.400000e-01	0.000000e+00	0.0	2.500000e-01	0.000000e+00	0.0	2.600000e-01	0.000000e+00	0.0	2.700000e-01	0.000000e+00	0.0	2.800000e-01	0.000000e+00	0.0	2.900000e-01	0.000000e+00	0.0	3.000000e-01	0.000000e+00	0.0	3.100000e-01	0.000000e+00	0.0	3.200000e-01	0.000000e+00	0.0	3.300000e-01	0.000000e+00	0.0	3.400000e-01	0.000000e+00	0.0	3.500000e-01	0.000000e+00	0.0	3.600000e-01	0.000000e+00	0.0	3.700000e-01	0.000000e+00	0.0	3.800000e-01	0.000000e+00	0.0	3.900000e-01	0.000000e+00	0.0	4.000000e-01	0.000000e+00	0.0	4.100000e-01	0.000000e+00	0.0	4.200000e-01	0.000000e+00	0.0	4.300000e-01	0.000000e+00	0.0	4.400000e-01	0.000000e+00	0.0	4.500000e-01	0.000000e+00	0.0	4.600000e-01	0.000000e+00	0.0	4.700000e-01	0.000000e+00	0.0	4.800000e-01	0.000000e+00	0.0	4.900000e-01	0.000000e+00	0.0	5.000000e-01	0.000000e+00	0.0	5.100000e-01	0.000000e+00	0.0	5.200000e-01	0.000000e+00	0.0	5.300000e-01	0.000000e+00	0.0	5.400000e-01	0.000000e+00	0.0	5.500000e-01	0.000000e+00	0.0	5.600000e-01	0.000000e+00	0.0	5.700000e-01	0.000000e+00	0.0	5.800000e-01	0.000000e+00	0.0	5.900000e-01	0.000000e+00	0.0	6.000000e-01	0.000000e+00	0.0	6.100000e-01	0.000000e+00	0.0	6.200000e-01	0.000000e+00	0.0	6.300000e-01	0.000000e+00	0.0	6.400000e-01	0.000000e+00	0.0	6.500000e-01	0.000000e+00	0.0	6.600000e-01	0.000000e+00	0.0	6.700000e-01	0.000000e+00	0.0	6.800000e-01	0.000000e+00	0.0	6.900000e-01	0.000000e+00	0.0	7.000000e-01	0.000000e+00	0.0	7.100000e-01	0.000000e+00	0.0	7.200000e-01	0.000000e+00	0.0	7.300000e-01	0.000000e+00	0.0	7.400000e-01	0.000000e+00	0.0	7.500000e-01	0.000000e+00	0.0	7.600000e-01	0.000000e+00	0.0	7.700000e-01	0.000000e+00	0.0	7.800000e-01	0.000000e+00	0.0	7.900000e-01	0.000000e+00	0.0	8.000000e-01	0.000000e+00	0.0	8.100000e-01	0.000000e+00	0.0	8.200000e-01	0.000000e+00	0.0	8.300000e-01	0.000000e+00	0.0	8.400000e-01	0.000000e+00	0.0	8.500000e-01	0.000000e+00	0.0	8.600000e-01	0.000000e+00	0.0	8.700000e-01	0.000000e+00	0.0	8.800000e-01	0.000000e+00	0.0	8.900000e-01	0.000000e+00	0.0	9.000000e-01	0.000000e+00	0.0	9.100000e-01	0.000000e+00	0.0	9.200000e-01	0.000000e+00	0.0	9.300000e-01	0.000000e+00	0.0	9.400000e-01	0.000000e+00	0.0	9.500000e-01	0.000000e+00	0.0	9.600000e-01	0.000000e+00	0.0	9.700000e-01	0.000000e+00	0.0	9.800000e-01	0.000000e+00	0.0	9.900000e-01	0.000000e+00	0.0	1.000000e+00	0.000000e+00	0.0	0.000000e+00	1.000000e-02	0.0	1.000000e-02	1.000000e-02	0.0	2.000000e-02	1.000000e-02	0.0	3.000000e-02	1.000000e-02	0.0	4.000000e-02	1.000000e-02	0.0	5.000000e-02	1.000000e-02	0.0	6.000000e-02	1.000000e-02	0.0	7.000000e-02	1.000000e-02	0.0	8.000000e-02	1.000000e-02	0.0	9.000000e-02	1.000000e-02	0.0	1.000000e-01	1.000000e-02	0.0	1.100000e-01	1.000000e-02	0.0	1.200000e-01	1.000000e-02	0.0	1.300000e-01	1.000000e-02	0.0	1.400000e-01	1.000000e-02	0.0	1.500000e-01	1.000000e-02	0.0	1.600000e-01	1.000000e-02	0.0	1.700000e-01	1.000000e-02	0.0	1.800000e-01	1.000000e-02	0.0	1.900000e-01	1.000000e-02	0.0	2.000000e-01	1.000000e-02	0.0	2.100000e-01	1.000000e-02	0.0	2.200000e-01	1.000000e-02	0.0	2.300000e-01	1.000000e-02	0.0	2.400000e-01	1.000000e-02	0.0	2.500000e-01	1.000000e-02	0.0	2.600000e-01	1.000000e-02	0.0	2.700000e-01	1.000000e-02	0.0	2.800000e-01	1.000000e-02	0.0	2.900000e-01	1.000000e-02	0.0	3.000000e-01	1.000000e-02	0.0	3.100000e-01	1.000000e-02	0.0	3.200000e-01	1.000000e-02	0.0	3.300000e-01	1.000000e-02	0.0	3.400000e-01	1.000000e-02	0.0	3.500000e-01	1.000000e-02	0.0	3.600000e-01	1.000000e-02	0.0	3.700000e-01	1.000000e-02	0.0	3.800000e-01	1.000000e-02	0.0	3.900000e-01	1.000000e-02	0.0	4.000000e-01	1.000000e-02	0.0	4.100000e-01	1.000000e-02	0.0	4.200000e-01	1.000000e-02	0.0	4.300000e-01	1.000000e-02	0.0	4.400000e-01	1.000000e-02	0.0	4.500000e-01	1.000000e-02	0.0	4.600000e-01	1.000000e-02	0.0	4.700000e-01	1.000000e-02	0.0	4.800000e-01	1.000000e-02	0.0	4.900000e-01	1.000000e-02	0.0	5.000000e-01	1.000000e-02	0.0	5.100000e-01	1.000000e-02	0.0	5.200000e-01	1.000000e-02	0.0	5.300000e-01	1.000000e-02	0.0	5.400000e-01	1.000000e-02	0.0	5.500000e-01	1.000000e-02	0.0	5.600000e-01	1.000000e-02	0.0	5.700000e-01	1.000000e-02	0.0	5.800000e-01	1.000000e-02	0.0	5.900000e-01	1.000000e-02	0.0	6.000000e-01	1.000000e-02	0.0	6.100000e-01	1.000000e-02	0.0	6.200000e-01	1.000000e-02	0.0	6.300000e-01	1.000000e-02	0.0	6.400000e-01	1.000000e-02	0.0	6.500000e-01	1.000000e-02	0.0	6.600000e-01	1.000000e-02	0.0	6.700000e-01	1.000000e-02	0.0	6.800000e-01	1.000000e-02	0.0	6.900000e-01	1.000000e-02	0.0	7.000000e-01	1.000000e-02	0.0	7.100000e-01	1.000000e-02	0.0	7.200000e-01	1.000000e-02	0.0	7.300000e-01	1.000000e-02	0.0	7.400000e-01	1.000000e-02	0.0	7.500000e-01	1.000000e-02	0.0	7.600000e-01	1.000000e-02	0.0	7.700000e-01	1.000000e-02	0.0	7.800000e-01	1.000000e-02	0.0	7.900000e-01	1.000000e-02	0.0	8.000000e-01	1.000000e-02	0.0	8.100000e-01	1.000000e-02	0.0	8.200000e-01	1.000000e-02	0.0	8.300000e-01	1.000000e-02	0.0	8.400000e-01	1.000000e-02	0.0	8.500000e-01	1.000000e-02	0.0	8.600000e-01	1.000000e-02	0.0	8.700000e-01	1.000000e-02	0.0	8.800000e-01	1.000000e-02	0.0	8.900000e-01	1.000000e-02	0.0	9.000000e-01	1.000000e-02	0.0	9.100000e-01	1.000000e-02	0.0	9.200000e-01	1.000000e-02	0.0	9.300000e-01	1.000000e-02	0.0	9.400000e-01	1.000000e-02	0.0	9.500000e-01	1.000000e-02	0.0	9.600000e-01	1.000000e-02	0.0	9.700000e-01	1.000000e-02	0.0	9.800000e-01	1.000000e-02	0.0	9.900000e-01	1.000000e-02	0.0	1.000000e+00	1.000000e-02	0.0	0.000000e+00	2.000000e-02	0.0	1.000000e-02	2.000000e-02	0.0	2.000000e-02	2.000000e-02	0.0	3.000000e-02	2.000000e-02	0.0	4.000000e-02	2.000000e-02	0.0	5.000000e-02	2.000000e-02	0.0	6.000000e-02	2.000000e-02	0.0	7.000000e-02	2.000000e-02	0.0	8.000000e-02	2.000000e-02	0.0	9.000000e-02	2.000000e-02	0.0	1.000000e-01	2.000000e-02	0.0	1.100000e-01	2.000000e-02	0.0	1.200000e-01	2.000000e-02	0.0	1.300000e-01	2.000000e-02	0.0	1.400000e-01	2.000000e-02	0.0	1.500000e-01	2.000000e-02	0.0	1.600000e-01	2.000000e-02	0.0	1.700000e-01	2.000000e-02	0.0	1.800000e-01	2.000000e-02	0.0	1.900000e-01	2.000000e-02	0.0	2.000000e-01	2.000000e-02	0.0	2.100000e-01	2.000000e-02	0.0	2.200000e-01	2.000000e-02	0.0	2.300000e-01	2.000000e-02	0.0	2.400000e-01	2.000000e-02	0.0	2.500000e-01	2.000000e-02	0.0	2.600000e-01	2.000000e-02	0.0	2.700000e-01	2.000000e-02	0.0	2.800000e-01	2.000000e-02	0.0	2.900000e-01	2.000000e-02	0.0	3.000000e-01	2.000000e-02	0.0	3.100000e-01	2.000000e-02	0.0	3.200000e-01	2.000000e-02	0.0	3.300000e-01	2.000000e-02	0.0	3.400000e-01	2.000000e-02	0.0	3.500000e-01	2.000000e-02	0.0	3.600000e-01	2.000000e-02	0.0	3.700000e-01	2.000000e-02	0.0	3.800000e-01	2.000000e-02	0.0	3.900000e-01	2.000000e-02	0.0	4.000000e-01	2.000000e-02	0.0	4.100000e-01	2.000000e-02	0.0	4.200000e-01	2.000000e-02	0.0	4.300000e-01	2.000000e-02	0.0	4.400000e-01	2.000000e-02	0.0	4.500000e-01	2.000000e-02	0.0	4.600000e-01	2.000000e-02	0.0	4.700000e-01	2.000000e-02	0.0	4.800000e-01	2.000000e-02	0.0	4.900000e-01	2.000000e-02	0.0	5.000000e-01	2.000000e-02	0.0	5.100000e-01	2.000000e-02	0.0	5.200000e-01	2.000000e-02	0.0	5.300000e-01	2.000000e-02	0.0	5.400000e-01	2.000000e-02	0.0	5.500000e-01	2.000000e-02	0.0	5.600000e-01	2.000000e-02	0.0	5.700000e-01	2.000000e-02	0.0	5.800000e-01	2.000000e-02	0.0	5.900000e-01	2.000000e-02	0.0	6.000000e-01	2.000000e-02	0.0	6.100000e-01	2.000000e-02	0.0	6.200000e-01	2.000000e-02	0.0	6.300000e-01	2.000000e-02	0.0	6.400000e-01	2.000000e-02	0.0	6.500000e-01	2.000000e-02	0.0	6.600000e-01	2.000000e-02	0.0	6.700000e-01	2.000000e-02	0.0	6.800000e-01	2.000000e-02	0.0	6.900000e-01	2.000000e-02	0.0	7.000000e-01	2.000000e-02	0.0	7.100000e-01	2.000000e-02	0.0	7.200000e-01	2.000000e-02	0.0	7.300000e-01	2.000000e-02	0.0	7.400000e-01	2.000000e-02	0.0	7.500000e-01	2.000000e-02	0.0	7.600000e-01	2.000000e-02	0.0	7.700000e-01	2.000000e-02	0.0	7.800000e-01	2.000000e-02	0.0	7.900000e-01	2.000000e-02	0.0	8.000000e-01	2.000000e-02	0.0	8.100000e-01	2.000000e-02	0.0	8.200000e-01	2.000000e-02	0.0	8.300000e-01	2.000000e-02	0.0	8.400000e-01	2.000000e-02	0.0	8.500000e-01	2.000000e-02	0.0	8.600000e-01	2.000000e-02	0.0	8.700000e-01	2.000000e-02	0.0	8.800000e-01	2.000000e-02	0.0	8.900000e-01	2.000000e-02	0.0	9.000000e-01	2.000000e-02	0.0	9.100000e-01	2.000000e-02	0.0	9.200000e-01	2.000000e-02	0.0	9.300000e-01	2.000000e-02	0.0	9.400000e-01	2.000000e-02	0.0	9.500000e-01	2.000000e-02	0.0	9.600000e-01	2.000000e-02	0.0	9.700000e-01	2.000000e-02	0.0	9.800000e-01	2.000000e-02	0.0	9.900000e-01	2.000000e-02	0.0	1.000000e+00	2.000000e-02	0.0	0.000000e+00	3.000000e-02	0.0	1.000000e-02	3.000000e-02	0.0	2.000000e-02	3.000000e-02	0.0	3.000000e-02	3.000000e-02	0.0	4.000000e-02	3.000000e-02	0.0	5.000000e-02	3.000000e-02	0.0	6.000000e-02	3.000000e-02	0.0	7.000000e-02	3.000000e-02	0.0	8.000000e-02	3.000000e-02	0.0	9.000000e-02	3.000000e-02	0.0	1.000000e-01	3.000000e-02	0.0	1.100000e-01	3.000000e-02	0.0	1.200000e-01	3.000000e-02	0.0	1.300000e-01	3.000000e-02	0.0	1.400000e-01	3.000000e-02	0.0	1.500000e-01	3.000000e-02	0.0	1.600000e-01	3.000000e-02	0.0	1.700000e-01	3.000000e-02	0.0	1.800000e-01	3.000000e-02	0.0	1.900000e-01	3.000000e-02	0.0	2.000000e-01	3.000000e-02	0.0	2.100000e-01	3.000000e-02	0.0	2.200000e-01	3.000000e-02	0.0	2.300000e-01	3.000000e-02	0.0	2.400000e-01	3.000000e-02	0.0	2.500000e-01	3.000000e-02	0.0	2.600000e-01	3.000000
[...]
POINT_DATA 10201

SCALARS Height double 1
LOOKUP_TABLE default
9.994872e-01	9.995005e-01	9.994988e-01	9.994983e-01	9.994963e-01	9.994944e-01	9.994925e-01	9.994906e-01	9.994911e-01	9.994939e-01	9.994975e-01	9.995000e-01	9.995011e-01	9.995010e-01	9.994998e-01	9.994976e-01	9.994956e-01	9.994973e-01	9.995007e-01	9.995076e-01	9.995102e-01	9.995035e-01	9.994937e-01	9.994843e-01	9.994761e-01	9.994740e-01	9.994866e-01	9.995390e-01	9.997120e-01	1.000222e+00	1.001520e+00	1.004144e+00	1.008025e+00	1.012090e+00	1.015070e+00	1.016419e+00	1.016664e+00	1.016416e+00	1.015480e+00	1.013703e+00	1.010956e+00	1.007473e+00	1.003715e+00	1.000159e+00	9.970455e-01	9.945311e-01	9.927297e-01	9.916474e-01	9.911491e-01	9.910309e-01	9.910645e-01	9.912760e-01	9.917255e-01	9.924604e-01	9.934261e-01	9.944356e-01	9.953153e-01	9.960017e-01	9.965092e-01	9.968775e-01	9.971443e-01	9.973381e-01	9.974723e-01	9.975545e-01	9.975969e-01	9.976160e-01	9.976312e-01	9.976694e-01	9.977986e-01	9.982326e-01	9.994090e-01	1.001922e+00	1.005845e+00	1.010169e+00	1.013514e+00	1.015157e+00	1.015515e+00	1.015330e+00	1.014498e+00	1.012877e+00	1.010303e+00	1.006946e+00	1.003229e+00	9.996422e-01	9.964404e-01	9.937920e-01	9.918265e-01	9.905752e-01	9.899381e-01	9.897065e-01	9.896581e-01	9.897736e-01	9.901116e-01	9.907176e-01	9.915705e-01	9.925084e-01	9.933439e-01	9.939736e-01	9.943860e-01	9.945843e-01	9.946977e-01	9.995130e-01	9.995448e-01	9.995260e-01	9.995264e-01	9.995237e-01	9.995200e-01	9.995154e-01	9.995103e-01	9.995071e-01	9.995061e-01	9.995061e-01	9.995065e-01	9.995064e-01	9.995058e-01	9.995049e-01	9.995041e-01	9.995016e-01	9.995091e-01	9.995180e-01	9.995235e-01	9.995263e-01	9.995209e-01	9.995107e-01	9.994948e-01	9.994793e-01	9.994737e-01	9.994783e-01	9.995128e-01	9.996459e-01	1.000095e+00	1.001377e+00	1.004148e+00	1.008309e+00	1.012482e+00	1.015258e+00	1.016428e+00	1.016654e+00	1.016565e+00	1.015826e+00	1.013943e+00	1.011007e+00	1.007425e+00	1.003683e+00	1.000121e+00	9.969933e-01	9.944718e-01	9.926788e-01	9.916250e-01	9.911733e-01	9.910702e-01	9.910839e-01	9.912349e-01	9.916982e-01	9.925087e-01	9.935251e-01	9.945334e-01	9.953881e-01	9.960530e-01	9.965499e-01	9.969172e-01	9.971863e-01	9.973805e-01	9.975100e-01	9.975835e-01	9.976149e-01	9.976219e-01	9.976214e-01	9.976359e-01	9.977321e-01	9.981026e-01	9.992479e-01	1.001886e+00	1.006101e+00	1.010586e+00	1.013736e+00	1.015160e+00	1.015486e+00	1.015422e+00	1.014821e+00	1.013138e+00	1.010376e+00	1.006905e+00	1.003201e+00	9.996050e-01	9.963876e-01	9.937301e-01	9.917676e-01	9.905380e-01	9.899358e-01	9.897332e-01	9.896786e-01	9.897323e-01	9.900676e-01	9.907455e-01	9.916600e-01	9.926111e-01	9.934242e-01	9.940269e-01	9.944240e-01	9.946200e-01	9.947190e-01	9.995033e-01	9.995134e-01	9.995029e-01	9.995030e-01	9.995023e-01	9.995013e-01	9.995003e-01	9.994991e-01	9.994993e-01	9.995006e-01	9.995017e-01	9.995013e-01	9.994995e-01	9.994973e-01	9.994954e-01	9.994937e-01	9.994917e-01	9.994902e-01	9.994850e-01	9.994824e-01	9.994817e-01	9.994798e-01	9.994785e-01	9.994759e-01	9.994683e-01	9.994606e-01	9.994609e-01	9.994876e-01	9.996047e-01	1.000039e+00	1.001352e+00	1.004213e+00	1.008380e+00	1.012377e+00	1.014983e+00	1.016148e+00	1.016428e+00	1.016388e+00	1.015754e+00	1.013832e+00	1.010849e+00	1.007336e+00	1.003663e+00	1.000138e+00	9.970267e-01	9.945247e-01	9.927419e-01	9.916760e-01	9.911837e-01	9.910344e-01	9.910276e-01	9.911537e-01	9.916403e-01	9.924873e-01	9.934919e-01	9.944700e-01	9.953103e-01	9.959717e-01	9.964701e-01	9.968423e-01	9.971192e-01	9.973203e-01	9.974562e-01	9.975367e-01	9.975758e-01	9.975907e-01	9.975978e-01	9.976170e-01	9.977049e-01	9.980624e-01	9.992349e-01	1.001968e+00	1.006206e+00	1.010509e+00	1.013467e+00	1.014865e+00	1.015241e+00	1.015225e+00	1.014740e+00	1.013040e+00	1.010220e+00	1.006808e+00	1.003173e+00	9.996167e-01	9.964137e-01	9.937748e-01	9.918259e-01	9.905896e-01	9.899565e-01	9.897115e-01	9.896330e-01	9.896593e-01	9.900085e-01	9.907253e-01	9.916334e-01	9.925482e-01	9.933377e-01	9.939286e-01	9.943215e-01	9.945181e-01	9.946406e-01	9.995052e-01	9.995157e-01	9.995066e-01	9.995063e-01	9.995055e-01	9.995040e-01	9.995027e-01	9.995018e-01	9.995021e-01	9.995031e-01	9.995037e-01	9.995037e-01	9.995023e-01	9.995002e-01	9.994979e-01	9.994965e-01	9.994949e-01	9.994972e-01	9.994966e-01	9.994969e-01	9.994972e-01	9.994943e-01	9.994908e-01	9.994830e-01	9.994729e-01	9.994628e-01	9.994616e-01	9.994827e-01	9.995897e-01	1.000006e+00	1.001323e+00	1.004244e+00	1.008465e+00	1.012446e+00	1.014989e+00	1.016100e+00	1.016371e+00	1.016338e+00	1.015793e+00	1.013934e+00	1.010889e+00	1.007334e+00	1.003685e+00	1.000199e+00	9.971015e-01	9.946019e-01	9.928150e-01	9.917408e-01	9.912423e-01	9.910981e-01	9.910964e-01	9.911948e-01	9.916294e-01	9.924678e-01	9.934852e-01	9.944664e-01	9.953042e-01	9.959662e-01	9.964682e-01	9.968438e-01	9.971223e-01	9.973233e-01	9.974581e-01	9.975371e-01	9.975747e-01	9.975877e-01	9.975921e-01	9.976063e-01	9.976829e-01	9.980270e-01	9.992059e-01	1.001996e+00	1.006288e+00	1.010578e+00	1.013476e+00	1.014817e+00	1.015182e+00	1.015170e+00	1.014761e+00	1.013138e+00	1.010269e+00	1.006807e+00	1.003190e+00	9.996718e-01	9.964844e-01	9.938487e-01	9.918982e-01	9.906555e-01	9.900158e-01	9.897715e-01	9.897000e-01	9.897070e-01	9.900003e-01	9.907024e-01	9.916244e-01	9.925461e-01	9.933324e-01	9.939198e-01	9.943125e-01	9.945113e-01	9.946321e-01	9.995079e-01	9.995196e-01	9.995097e-01	9.995090e-01	9.995076e-01	9.995064e-01	9.995051e-01	9.995039e-01	9.995038e-01	9.995046e-01	9.995051e-01	9.995050e-01	9.995040e-01	9.995022e-01	9.995000e-01	9.994984e-01	9.994965e-01	9.994987e-01	9.994982e-01	9.994983e-01	9.994982e-01	9.994951e-01	9.994919e-01	9.994851e-01	9.994760e-01	9.994669e-01	9.994662e-01	9.994836e-01	9.995792e-01	9.999792e-01	1.001289e+00	1.004236e+00	1.008487e+00	1.012461e+00	1.014981e+00	1.016063e+00	1.016317e+00	1.016278e+00	1.015783e+00	1.014020e+00	1.010976e+00	1.007375e+00	1.003737e+00	1.000285e+00	9.972142e-01	9.947229e-01	9.929332e-01	9.918475e-01	9.913301e-01	9.911710e-01	9.911617e-01	9.912358e-01	9.916164e-01	9.924290e-01	9.934541e-01	9.944418e-01	9.952828e-01	9.959507e-01	9.964592e-01	9.968389e-01	9.971190e-01	9.973200e-01	9.974542e-01	9.975327e-01	9.975700e-01	9.975825e-01	9.975860e-01	9.975983e-01	9.976698e-01	9.980029e-01	9.991780e-01	1.001996e+00	1.006310e+00	1.010592e+00	1.013456e+00	1.014767e+00	1.015117e+00	1.015100e+00	1.014727e+00	1.013210e+00	1.010362e+00	1.006853e+00	1.003237e+00	9.997500e-01	9.965907e-01	9.939647e-01	9.920120e-01	9.907599e-01	9.901035e-01	9.898441e-01	9.897638e-01	9.897521e-01	9.899956e-01	9.906649e-01	9.915895e-01	9.925175e-01	9.933058e-01	9.938966e-01	9.942932e-01	9.944933e-01	9.946141e-01	9.995098e-01	9.995237e-01	9.995125e-01	9.995114e-01	9.995093e-01	9.995071e-01	9.995058e-01	9.995057e-01	9.995055e-01	9.995060e-01	9.995061e-01	9.995056e-01	9.995045e-01	9.995031e-01	9.995015e-01	9.995001e-01	9.994977e-01	9.994998e-01	9.994995e-01	9.994994e-01	9.994990e-01	9.994956e-01	9.994925e-01	9.994861e-01	9.994778e-01	9.994707e-01	9.994706e-01	9.994860e-01	9.995747e-01	9.999589e-01	1.001252e+00	1.004203e+00	1.008456e+00	1.012408e+00	1.014902e+00	1.015970e+00	1.016223e+00	1.016191e+00	1.015746e+00	1.014089e+00	1.011095e+00	1.007469e+00	1.003819e+00	1.000388e+00	9.973432e-01	9.948583e-01	9.930619e-01	9.919598e-01	9.914215e-01	9.912441e-01	9.912236e-01	9.912783e-01	9.916060e-01	9.923756e-01	9.934003e-01	9.943996e-01	9.952477e-01	9.959220e-01	9.964384e-01	9.968244e-01	9.971082e-01	9.973106e-01	9.974452e-01	9.975240e-01	9.975617e-01	9.975747e-01	9.975787e-01	9.975911e-01	9.976611e-01	9.979887e-01	9.991550e-01	1.001973e+00	1.006293e+00	1.010542e+00	1.013375e+00	1.014673e+00	1.015017e+00	1.014999e+00	1.014663e+00	1.013256e+00	1.010480e+00	1.006952e+00	1.003314e+00	9.998467e-01	9.967144e-01	9.940965e-01	9.921373e-01	9.908693e-01	9.901927e-01	9.899131e-01	9.898241e-01	9.897997e-01	9.899973e-01	9.906167e-01	9.915304e-01	9.924667e-01	9.932618e-01	9.938580e-01	9.942602e-01	9.944617e-01	9.945836e-01	9.995086e-01	9.995223e-01	9.995130e-01	9.995126e-01	9.995099e-01	9.995074e-01	9.995058e-01	9.995054e-01	9.995063e-01	9.995066e-01	9.995063e-01	9.995052e-01	9.995034e-01	9.995016e-01	9.995001e-01	9.994992e-01	9.994975e-01	9.994997e-01	9.994997e-01	9.994991e-01	9.994981e-01	9.994943e-01	9.994915e-01	9.994846e-01	9.994771e-01	9.994705e-01	9.994700e-01	9.994846e-01	9.995698e-01	9.999437e-01	1.001218e+00	1.004146e+00	1.008386e+00	1.012315e+00	1.014788e+00	1.015851e+00	1.016105e+00	1.016076e+00	1.015679e+00	1.014136e+00	1.011227e+00	1.007603e+00	1.003933e+00	1.000519e+00	9.974933e-01	9.950083e-01	9.931941e-01	9.920647e-01	9.915012e-01	9.913053e-01	9.912788e-01	9.913181e-01	9.915962e-01	9.923122e-01	9.933255e-01	9.943399e-01	9.951994e-01	9.958801e-01	9.964044e-01	9.967989e-01	9.970886e-01	9.972943e-01	9.974303e-01	9.975100e-01	9.975487e-01	9.975631e-01	9.975686e-01	9.975823e-01	9.976540e-01	9.979828e-01	9.991427e-01	1.001937e+00	1.006225e+00	1.010445e+00	1.013256e+00	1.014548e+00	1.014894e+00	1.014879e+00	1.014576e+00	1.013277e+00	1.010602e+00	1.007086e+00	1.003428e+00	9.999711e-01	9.968583e-01	9.942433e-01	9.922682e-01	9.909737e-01	9.902702e-01	9.899725e-01	9.898761e-01	9.898411e-01	9.899973e-01	9.905595e-01	9.914492e-01	9.923930e-01	9.932002e-01	9.938033e-01	9.942113e-01	9.944160e-01	9.945415e-01	9.995053e-01	9.995183e-01	9.995116e-01	9.995116e-01	9.995091e-01	9.995064e-01	9.995048e-01	9.995042e-01	9.995053e-01	9.995065e-01	9.995061e-01	9.995048e-01	9.995026e-01	9.995003e-01	9.994983e-01	9.994967e-01	9.994964e-01	9.994969e-01	9.994992e-01	9.994985e-01	9.994969e-01	9.994927e-01	9.994887e-01	9.994808e-01	9.994734e-01	9.994679e-01	9.994673e-01	9.994821e-01	9.995655e-01	9.999334e-01	1.001191e+00	1.004083e+00	1.008276e+00	1.012175e+00	1.014637e+00	1.015705e+00	1.015969e+00	1.015949e+00	1.015591e+00	1.014162e+00	1.011365e+00	1.007774e+00	1.004095e+00	1.000681e+00	9.976679e-01	9.951804e-01	9.933396e-01	9.921747e-01	9.915814e-01	9.913642e-01	9.913283e-01	9.913556e-01	9.915864e-01	9.922416e-01	9.932340e-01	9.942638e-01	9.951396e-01	9.958299e-01	9.963626e-01	9.967656e-01	9.970630e-01	9.972729e-01	9.974106e-01	9.974914e-01	9.975312e-01	9.975472e-01	9.975544e-01	9.975703e-01	9.976460e-01	9.979813e-01	9.991392e-01	1.001898e+00	1.006122e+00	1.010298e+00	1.013093e+00	1.014388e+00	1.014744e+00	1.014738e+00	1.014473e+00	1.013280e+00	1.010724e+00	1.007257e+00	1.003591e+00	1.000127e+00	9.970258e-01	9.944122e-01	9.924146e-01	9.910857e-01	9.903493e-01	9.900281e-01	9.899201e-01	9.898768e-01	9.899938e-01	9.904954e-01	9.913506e-01	9.922998e-01	9.931222e-01	9.937361e-01	9.941514e-01	9.943603e-01	9.944916e-01	9.995023e-01	9.995141e-01	9.995093e-01	9.995098e-01	9.995074e-01	9.995050e-01	9.995033e-01	9.995032e-01	9.995038e-01	9.995056e-01	9.995065e-01	9.995052e-01	9.995026e-01	9.994997e-01	9.994970e-01	9.994950e-01	9.994939e-01	9.994942e-01	9.994941e-01	9.994954e-01	9.994932e-01	9.994894e-01	9.994832e-01	9.994770e-01	9.994711e-01	9.994663e-01	9.994658e-01	9.994810e-01	9.995641e-01	9.999289e-01	1.001171e+00	1.004018e+00	1.008145e+00	1.012001e+00	1.014456e+00	1.015537e+00	1.015816e+00	1.015805e+00	1.015488e+00	1.014174e+00	1.011506e+00	1.007978e+00	1.004299e+00	1.000877e+00	9.978704e-01	9.953799e-01	9.935106e-01	9.923022e-01	9.916704e-01	9.914289e-01	9.913816e-01	9.913977e-01	9.915812e-01	9.921671e-01	9.931247e-01	9.941632e-01	9.950621e-01	9.957709e-01	9.963149e-01	9.967275e-01	9.970323e-01	9.972464e-01	9.973865e-01	9.974685e-01	9.975097e-01	9.975272e-01	9.975363e-01	9.975554e-01	9.976377e-01	9.979835e-01	9.991418e-01	1.001858e+00	1.006001e+00	1.010115e+00	1.012897e+00	1.014203e+00	1.014576e+00	1.014579e+00	1.014351e+00	1.013266e+00	1.010844e+00	1.007452e+00	1.003791e+00	1.000317e+00	9.972198e-01	9.946072e-01	9.925868e-01	9.912172e-01	9.904410e-01	9.900922e-01	9.899668e-01	9.899155e-01	9.899940e-01	9.904302e-01	9.912400e-01	9.921844e-01	9.930234e-01	9.936542e-01	9.940804e-01	9.942944e-01	9.944314e-01	9.995018e-01	9.995123e-01	9.995078e-01	9.995085e-01	9.995061e-01	9.995039e-01	9.995025e-01	9.995022e-01	9.995036e-01	9.995039e-01	9.995054e-01	9.995055e-01	9.995034e-01	9.994995e-01	9.994959e-01	9.994932e-01	9.994920e-01	9.994936e-01	9.994943e-01	9.994935e-01	9.994917e-01	9.994879e-01	9.994828e-01	9.994764e-01	9.994699e-01	9.994654e-01	9.994657e-01	9.994817e-01	9.995656e-01	9.999293e-01	1.001156e+00	1.003950e+00	1.007998e+00	1.011803e+00	1.014253e+00	1.015352e+00	1.015647e+00	1.015646e+00	1.015373e+00	1.014173e+00	1.011647e+00	1.008206e+00	1.004545e+00	1.001114e+00	9.981033e-01	9.956078e-01	9.937120e-01	9.924565e-01	9.917762e-01	9.915032e-01	9.914437e-01	9.914527e-01	9.915903e-01	9.920962e-01	9.930045e-01	9.940467e-01	9.949723e-01	9.957045e-01	9.962630e-01	9.966846e-01	9.969965e-01	9.972165e-01	9.973601e-01	9.974443e-01	9.974872e-01	9.975065e-01	9.975178e-01	9.975415e-01	9.976326e-01	9.979918e-01	9.991503e-01	1.001817e+00	1.005866e+00	1.009911e+00	1.012679e+00	1.014003e+00	1.014396e+00	1.014408e+00	1.014212e+00	1.013235e+00	1.010960e+00	1.007665e+00	1.004029e+00	1.000546e+00	9.974426e-01	9.948280e-01	9.927881e-01	9.913754e-01	9.905506e-01	9.901672e-01	9.900257e-01	9.899654e-01	9.900066e-01	9.903713e-01	9.911243e-01	9.920565e-01	9.929119e-01	9.935624e-01	9.940011e-01	9.942195e-01	9.943614e-01	9.995024e-01	9.995130e-01	9.995068e-01	9.995078e-01	9.995054e-01	9.995034e-01	9.995021e-01	9.995018e-01	9.995028e-01	9.995036e-01	9.995030e-01	9.995035e-01	9.995025e-01	9.994998e-01	9.994958e-01	9.994930e-01	9.994914e-01	9.994926e-01	9.994937e-01	9.994942e-01	9.994927e-01	9.994882e-01	9.994825e-01	9.994761e-01	9.994700e-01	9.994664e-01	9.994672e-01	9.994841e-01	9.995691e-01	9.999337e-01	1.001146e+00	1.003878e+00	1.007832e+00	1.011580e+00	1.014029e+00	1.015150e+00	1.015463e+00	1.015472e+00	1.015243e+00	1.014161e+00	1.011787e+00	1.008451e+00	1.004825e+00	1.001390e+00	9.983705e-01	9.958650e-01	9.939436e-01	9.926412e-01	9.919070e-01	9.915932e-01	9.915146e-01	9.915189e-01	9.916159e-01	9.920348e-01	9.928766e-01	9.939118e-01	9.948645e-01	9.956258e-01	9.962033e-01	9.966365e-01	9.969565e-01	9.971827e-01	9.973312e-01	9.974190e-01	9.974648e-01	9.974869e-01	9.975022e-01	9.975314e-01	9.976332e-01	9.980082e-01	9.991674e-01	1.001775e+00	1.005716e+00	1.009684e+00	1.012442e+00	1.013790e+00	1.014204e+00	1.014227e+00	1.014060e+00	1.013188e+00	1.011070e+00	1.007890e+00	1.004298e+00	1.000813e+00	9.976989e-01	9.950757e-01	9.930171e-01	9.915637e-01	9.906849e-01	9.902573e-01	9.900960e-01	9.900286e-01	9.900358e-01	9.903221e-01	9.910045e-01	9.919153e-01	9.927848e-01	9.934575e-01	9.939111e-01	9.941342e-01	9.942808e-01	9.995039e-01	9.995141e-01	9.995062e-01	9.995071e-01	9.995050e-01	9.995032e-01	9.995021e-01	9.995016e-01	9.995015e-01	9.995018e-01	9.995013e-01	9.995002e-01	9.994999e-01	9.994980e-01	9.994955e-01	9.994932e-01	9.994918e-01	9.994927e-01	9.994936e-01	9.994937e-01	9.994918e-01	9.994877e-01	9.994822e-01	9.994760e-01	9.994704e-01	9.994674e-01	9.994686e-01	9.994862e-01	9.995734e-01	9.999410e-01	1.001140e+00	1.003801e+00	1.007646e+00	1.011330e+00	1.013781e+00	1.014931e+00	1.015266e+00	1.015286e+00	1.015098e+00	1.014136e+00	1.011923e+00	1.008706e+00	1.005131e+00	1.001702e+00	9.986719e-01	9.961516e-01	9.942026e-01	9.928540e-01	9.920645e-01	9.917036e-01	9.915979e-01	9.915933e-01	9.916561e-01	9.919856e-01	9.927429e-01	9.937568e-01	9.947349e-01	9.955304e-01	9.961330e-01	9.965824e-01	9.969125e-01	9.971462e-01	9.973006e-01	9.973927e-01	9.974420e-01	9.974678e-01	9.974872e-01	9.975229e-01	9.976366e-01	9.980287e-01	9.991874e-01	1.001729e+00	1.005549e+00	1.009433e+00	1.012183e+00	1.013559e+00	1.014000e+00	1.014032e+00	1.013895e+00	1.013127e+00	1.011171e+00	1.008122e+00	1.004590e+00	1.001115e+00	9.979898e-01	9.953517e-01	9.932711e-01	9.917790e-01	9.908471e-01	9.903682e-01	9.901746e-01	9.900988e-01	9.900775e-01	9.902823e-01	9.908794e-01	9.917562e-01	9.926374e-01	9.933355e-01	9.938082e-01	9.940385e-01	9.941906e-01	9.995032e-01	9.995132e-01	9.995043e-01	9.995053e-01	9.995036e-01	9.995022e-01	9.995011e-01	9.995003e-01	9.994995e-01	9.994985e-01	9.994982e-01	9.994973e-01	9.994962e-01	9.994958e-01	9.994946e-01	9.994932e-01	9.994923e-01	9.994930e-01	9.994936e-01	9.994930e-01	9.994905e-01	9.994863e-01	9.994810e-01	9.994750e-01	9.994700e-01	9.994674e-01	9.994692e-01	9.994878e-01	9.995783e-01	9.999526e-01	1.001139e+00	1.003721e+00	1.007442e+00	1.011053e+00	1.013506e+00	1.014691e+00	1.015056e+00	1.015087e+00	1.014936e+00	1.014096e+00	1.012053e+00	1.008968e+00	1.005455e+00	1.002041e+00	9.990036e-01	9.964654e-01	9.944858e-01	9.930894e-01	9.922420e-01	9.918296e-01	9.916914e-01	9.916748e-01	9.917082e-01	9.919498e-01	9.926067e-01	9.935821e-01	9.945805e-01	9.954141e-01	9.960496e-01	9.965201e-01	9.968629e-01	9.971050e-01	9.972650e-01	9.973616e-01	9.974150e-01	9.974447e-01	9.974685e-01	9.975109e-01	9.976373e-01	9.980487e-01	9.992079e-01	1.001679e+00	1.005367e+00	1.009155e+00	1.011894e+00	1.013305e+00	1.013778e+00	1.013823e+00	1.013710e+00	1.013049e+00	1.011261e+00	1.008358e+00	1.004901e+00	1.001444e+00	9.983119e-01	9.956553e-01	9.935473e-01	9.920144e-01	9.910294e-01	9.904970e-01	9.902646e-01	9.901730e-01	9.901270e-01	9.902516e-01	9.907487e-01	9.915749e-01	9.924628e-01	9.931905e-01	9.936891e-01	9.939317e-01	9.940920e-01	9.995001e-01	9.995098e-01	9.995006e-01	9.995020e-01	9.995008e-01	9.994998e-01	9.994986e-01	9.994975e-01	9.994963e-01	9.994948e-01	9.994940e-01	9.994941e-01	9.994937e-01	9.994931e-01	9.994930e-01	9.994925e-01	9.994919e-01	9.994923e-01	9.994922e-01	9.994907e-01	9.994874e-01	9.994832e-01	9.994782e-01	9.994725e-01	9.994680e-01	9.994657e-01	9.994682e-01	9.994886e-01	9.995841e-01	9.999698e-01	1.001143e+00	1.003638e+00	1.007224e+00	1.010751e+00	1.013207e+00	1.014432e+00	1.014829e+00	1.014873e+00	1.014758e+00	1.014037e+00	1.012172e+00	1.009233e+00	1.005796e+00	1.002404e+00	9.993628e-01	9.968055e-01	9.947920e-01	9.933443e-01	9.924339e-01	9.919643e-01	9.917863e-01	9.917535e-01	9.917676e-01	9.919294e-01	9.924747e-01	9.933928e-01	9.944033e-01	9.952773e-01	9.959516e-01	9.964479e-01	9.968071e-01	9.970578e-01	9.972228e-01	9.973235e-01	9.973807e-01	9.974141e-01	9.974423e-01	9.974920e-01	9.976329e-01	9.980659e-01	9.992264e-01	1.001625e+00	1.005171e+00	1.008850e+00	1.011574e+00	1.013023e+00	1.013535e+00	1.013596e+00	1.013505e+00	1.012949e+00	1.011338e+00	1.008594e+00	1.005226e+00	1.001799e+00	9.986618e-01	9.959853e-01	9.938455e-01	9.922670e-01	9.912247e-01	9.906345e-01	9.903586e-01	9.902448e-01	9.901813e-01	9.902328e-01	9.906181e-01	9.913734e-01	9.922584e-01	9.930188e-01	9.935516e-01	9.938131e-01	9.939855e-01	9.994958e-01	9.995053e-01	9.994957e-01	9.994978e-01	9.994972e-01	9.994965e-01	9.994952e-01	9.994941e-01	9.994930e-01	9.994916e-01	9.994909e-01	9.994907e-01	9.994917e-01	9.994917e-01	9.994909e-01	9.994915e-01	9.994910e-01	9.994910e-01	9.994899e-01	9.994874e-01	9.994832e-01	9.994789e-01	9.994742e-01	9.994692e-01	9.994648e-01	9.994633e-01	9.994665e-01	9.994894e-01	9.995929e-01	9.999902e-01	1.001151e+00	1.003554e+00	1.006996e+00	1.010432e+00	1.012885e+00	1.014151e+00	1.014586e+00	1.014645e+00	1.014561e+00	1.013960e+00	1.012279e+00	1.009499e+00	1.006152e+00	1.002792e+00	9.997507e-01	9.971749e-01	9.951252e-01	9.936220e-01	9.926433e-01	9.921080e-01	9.918847e-01	9.918290e-01	9.918317e-01	9.919282e-01	9.923552e-01	9.931959e-01	9.942077e-01	9.951226e-01	9.958395e-01	9.963676e-01	9.967448e-01	9.970052e-01	9.971757e-01	9.972801e-01	9.973404e-01	9.973772e-01	9.974101e-01	9.974683e-01	9.976259e-01	9.980822e-01	9.992461e-01	1.001571e+00	1.004970e+00	1.008528e+00	1.011226e+00	1.012714e+00	1.013269e+00	1.013351e+00	1.013282e+00	1.012827e+00	1.011399e+00	1.008828e+00	1.005564e+00	1.002177e+00	9.990406e-01	9.963440e-01	9.941694e-01	9.925408e-01	9.914352e-01	9.907804e-01	9.904551e-01	9.903146e-01	9.902380e-01	9.902307e-01	9.905000e-01	9.911618e-01	9.920289e-01	9.928212e-01	9.933946e-01	9.936810e-01	9.938693e-01	9.994920e-01	9.995027e-01	9.994916e-01	9.994944e-01	9.994941e-01	9.994938e-01	9.994926e-01	9.994918e-01	9.994913e-01	9.994902e-01	9.994896e-01	9.994893e-01	9.994899e-01	9.994905e-01	9.994911e-01	9.994899e-01	9.994907e-01	9.994895e-01	9.994879