# vtk DataFile Version 3.0
vtk output
ASCII
DATASET STRUCTURED_GRID
DIMENSIONS 101 101 1
POINTS 10201 double
0.000000e+00	0.000000e+00	0.0	1.000000e-02	0.000000e+00	0.0	2.000000e-02	0.000000e+00	0.0	3.000000e-02	0.000000e+00	0.0	4.000000e-02	0.000000e+00	0.0	5.000000e-02	0.000000e+00	0.0	6.000000e-02	0.000000e+00	0.0	7.000000e-02	0.000000e+00	0.0	8.000000e-02	0.000000e+00	0.0	9.000000e-02	0.000000e+00	0.0	1.000000e-01	0.000000e+00	0.0	1.100000e-01	0.000000e+00	0.0	1.200000e-01	0.000000e+00	0.0	1.300000e-01	0.000000e+00	0.0	1.400000e-01	0.000000e+00	0.0	1.500000e-01	0.000000e+00	0.0	1.600000e-01	0.000000e+00	0.0	1.700000e-01	0.000000e+00	0.0	1.800000e-01	0.000000e+00	0.0	1.900000e-01	0.000000e+00	0.0	2.000000e-01	0.000000e+00	0.0	2.100000e-01	0.000000e+00	0.0	2.200000e-01	0.000000e+00	0.0	2.300000e-01	0.000000e+00	0.0	2.400000e-01	0.000000e+00	0.0	2.500000e-01	0.000000e+00	0.0	2.600000e-01	0.000000e+00	0.0	2.700000e-01	0.000000e+00	0.0	2.800000e-01	0.000000e+00	0.0	2.900000e-01	0.000000e+00	0.0	3.000000e-01	0.000000e+00	0.0	3.100000e-01	0.000000e+00	0.0	3.200000e-01	0.000000e+00	0.0	3.300000e-01	0.000000e+00	0.0	3.400000e-01	0.000000e+00	0.0	3.500000e-01	0.000000e+00	0.0	3.600000e-01	0.000000e+00	0.0	3.700000e-01	0.000000e+00	0.0	3.800000e-01	0.000000e+00	0.0	3.900000e-01	0.000000e+00	0.0	4.000000e-01	0.000000e+00	0.0	4.100000e-01	0.000000e+00	0.0	4.200000e-01	0.000000e+00	0.0	4.300000e-01	0.000000e+00	0.0	4.400000e-01	0.000000e+00	0.0	4.500000e-01	0.000000e+00	0.0	4.600000e-01	0.000000e+00	0.0	4.700000e-01	0.000000e+00	0.0	4.800000e-01	0.000000e+00	0.0	4.900000e-01	0.000000e+00	0.0	5.000000e-01	0.000000e+00	0.0	5.100000e-01	0.000000e+00	0.0	5.200000e-01	0.000000e+00	0.0	5.300000e-01	0.000000e+00	0.0	5.400000e-01	0.000000e+00	0.0	5.500000e-01	0.000000e+00	0.0	5.600000e-01	0.000000e+00	0.0	5.700000e-01	0.000000e+00	0.0	5.800000e-01	0.000000e+00	0.0	5.900000e-01	0.000000e+00	0.0	6.000000e-01	0.000000e+00	0.0	6.100000e-01	0.000000e+00	0.0	6.200000e-01	0.000000e+00	0.0	6.300000e-01	0.000000e+00	0.0	6.400000e-01	0.000000e+00	0.0	6.500000e-01	0.000000e+00	0.0	6.600000e-01	0.000000e+00	0.0	6.700000e-01	0.000000e+00	0.0	6.800000e-01	0.000000e+00	0.0	6.900000e-01	0.000000e+00	0.0	7.000000e-01	0.000000e+00	0.0	7.100000e-01	0.000000e+00	0.0	7.200000e-01	0.000000e+00	0.0	7.300000e-01	0.000000e+00	0.0	7.400000e-01	0.000000e+00	0.0	7.500000e-01	0.000000e+00	0.0	7.600000e-01	0.000000e+00	0.0	7.700000e-01	0.000000e+00	0.0	7.800000e-01	0.000000e+00	0.0	7.900000e-01	0.000000e+00	0.0	8.000000e-01	0.000000e+00	0.0	8.100000e-01	0.000000e+00	0.0	8.200000e-01	0.000000e+00	0.0	8.300000e-01	0.000000e+00	0.0	8.400000e-01	0.000000e+00	0.0	8.500000e-01	0.000000e+00	0.0	8.600000e-01	0.000000e+00	0.0	8.700000e-01	0.000000e+00	0.0	8.800000e-01	0.000000e+00	0.0	8.900000e-01	0.000000e+00	0.0	9.000000e-01	0.000000e+00	0.0	9.100000e-01	0.000000e+00	0.0	9.200000e-01	0.000000e+00	0.0	9.300000e-01	0.000000e+00	0.0	9.400000e-01	0.000000e+00	0.0	9.500000e-01	0.000000e+00	0.0	9.600000e-01	0.000000e+00	0.0	9.700000e-01	0.000000e+00	0.0	9.800000e-01	0.000000e+00	0.0	9.900000e-01	0.000000e+00	0.0	1.000000e+00	0.000000e+00	0.0	0.000000e+00	1.000000e-02	0.0	1.000000e-02	1.000000e-02	0.0	2.000000e-02	1.000000e-02	0.0	3.000000e-02	1.000000e-02	0.0	4.000000e-02	1.000000e-02	0.0	5.000000e-02	1.000000e-02	0.0	6.000000e-02	1.000000e-02	0.0	7.000000e-02	1.000000e-02	0.0	8.000000e-02	1.000000e-02	0.0	9.000000e-02	1.000000e-02	0.0	1.000000e-01	1.000000e-02	0.0	1.100000e-01	1.000000e-02	0.0	1.200000e-01	1.000000e-02	0.0	1.300000e-01	1.000000e-02	0.0	1.400000e-01	1.000000e-02	0.0	1.500000e-01	1.000000e-02	0.0	1.600000e-01	1.000000e-02	0.0	1.700000e-01	1.000000e-02	0.0	1.800000e-01	1.000000e-02	0.0	1.900000e-01	1.000000e-02	0.0	2.000000e-01	1.000000e-02	0.0	2.100000e-01	1.000000e-02	0.0	2.200000e-01	1.000000e-02	0.0	2.300000e-01	1.000000e-02	0.0	2.400000e-01	1.000000e-02	0.0	2.500000e-01	1.000000e-02	0.0	2.600000e-01	1.000000e-02	0.0	2.700000e-01	1.000000e-02	0.0	2.800000e-01	1.000000e-02	0.0	2.900000e-01	1.000000e-02	0.0	3.000000e-01	1.000000e-02	0.0	3.100000e-01	1.000000e-02	0.0	3.200000e-01	1.000000e-02	0.0	3.300000e-01	1.000000e-02	0.0	3.400000e-01	1.000000e-02	0.0	3.500000e-01	1.000000e-02	0.0	3.600000e-01	1.000000e-02	0.0	3.700000e-01	1.000000e-02	0.0	3.800000e-01	1.000000e-02	0.0	3.900000e-01	1.000000e-02	0.0	4.000000e-01	1.000000e-02	0.0	4.100000e-01	1.000000e-02	0.0	4.200000e-01	1.000000e-02	0.0	4.300000e-01	1.000000e-02	0.0	4.400000e-01	1.000000e-02	0.0	4.500000e-01	1.000000e-02	0.0	4.600000e-01	1.000000e-02	0.0	4.700000e-01	1.000000e-02	0.0	4.800000e-01	1.000000e-02	0.0	4.900000e-01	1.000000e-02	0.0	5.000000e-01	1.000000e-02	0.0	5.100000e-01	1.000000e-02	0.0	5.200000e-01	1.000000e-02	0.0	5.300000e-01	1.000000e-02	0.0	5.400000e-01	1.000000e-02	0.0	5.500000e-01	1.000000e-02	0.0	5.600000e-01	1.000000e-02	0.0	5.700000e-01	1.000000e-02	0.0	5.800000e-01	1.000000e-02	0.0	5.900000e-01	1.000000e-02	0.0	6.000000e-01	1.000000e-02	0.0	6.100000e-01	1.000000e-02	0.0	6.200000e-01	1.000000e-02	0.0	6.300000e-01	1.000000e-02	0.0	6.400000e-01	1.000000e-02	0.0	6.500000e-01	1.000000e-02	0.0	6.600000e-01	1.000000e-02	0.0	6.700000e-01	1.000000e-02	0.0	6.800000e-01	1.000000e-02	0.0	6.900000e-01	1.000000e-02	0.0	7.000000e-01	1.000000e-02	0.0	7.100000e-01	1.000000e-02	0.0	7.200000e-01	1.000000e-02	0.0	7.300000e-01	1.000000e-02	0.0	7.400000e-01	1.000000e-02	0.0	7.500000e-01	1.000000e-02	0.0	7.600000e-01	1.000000e-02	0.0	7.700000e-01	1.000000e-02	0.0	7.800000e-01	1.000000e-02	0.0	7.900000e-01	1.000000e-02	0.0	8.000000e-01	1.000000e-02	0.0	8.100000e-01	1.000000e-02	0.0	8.200000e-01	1.000000e-02	0.0	8.300000e-01	1.000000e-02	0.0	8.400000e-01	1.000000e-02	0.0	8.500000e-01	1.000000e-02	0.0	8.600000e-01	1.000000e-02	0.0	8.700000e-01	1.000000e-02	0.0	8.800000e-01	1.000000e-02	0.0	8.900000e-01	1.000000e-02	0.0	9.000000e-01	1.000000e-02	0.0	9.100000e-01	1.000000e-02	0.0	9.200000e-01	1.000000e-02	0.0	9.300000e-01	1.000000e-02	0.0	9.400000e-01	1.000000e-02	0.0	9.500000e-01	1.000000e-02	0.0	9.600000e-01	1.000000e-02	0.0	9.700000e-01	1.000000e-02	0.0	9.800000e-01	1.000000e-02	0.0	9.900000e-01	1.000000e-02	0.0	1.000000e+00	1.000000e-02	0.0	0.000000e+00	2.000000e-02	0.0	1.000000e-02	2.000000e-02	0.0	2.000000e-02	2.000000e-02	0.0	3.000000e-02	2.000000e-02	0.0	4.000000e-02	2.000000e-02	0.0	5.000000e-02	2.000000e-02	0.0	6.000000e-02	2.000000e-02	0.0	7.000000e-02	2.000000e-02	0.0	8.000000e-02	2.000000e-02	0.0	9.000000e-02	2.000000e-02	0.0	1.000000e-01	2.000000e-02	0.0	1.100000e-01	2.000000e-02	0.0	1.200000e-01	2.000000e-02	0.0	1.300000e-01	2.000000e-02	0.0	1.400000e-01	2.000000e-02	0.0	1.500000e-01	2.000000e-02	0.0	1.600000e-01	2.000000e-02	0.0	1.700000e-01	2.000000e-02	0.0	1.800000e-01	2.000000e-02	0.0	1.900000e-01	2.000000e-02	0.0	2.000000e-01	2.000000e-02	0.0	2.100000e-01	2.000000e-02	0.0	2.200000e-01	2.000000e-02	0.0	2.300000e-01	2.000000e-02	0.0	2.400000e-01	2.000000e-02	0.0	2.500000e-01	2.000000e-02	0.0	2.600000e-01	2.000000e-02	0.0	2.700000e-01	2.000000e-02	0.0	2.800000e-01	2.000000e-02	0.0	2.900000e-01	2.000000e-02	0.0	3.000000e-01	2.000000e-02	0.0	3.100000e-01	2.000000e-02	0.0	3.200000e-01	2.000000e-02	0.0	3.300000e-01	2.000000e-02	0.0	3.400000e-01	2.000000e-02	0.0	3.500000e-01	2.000000e-02	0.0	3.600000e-01	2.000000e-02	0.0	3.700000e-01	2.000000e-02	0.0	3.800000e-01	2.000000e-02	0.0	3.900000e-01	2.000000e-02	0.0	4.000000e-01	2.000000e-02	0.0	4.100000e-01	2.000000e-02	0.0	4.200000e-01	2.000000e-02	0.0	4.300000e-01	2.000000e-02	0.0	4.400000e-01	2.000000e-02	0.0	4.500000e-01	2.000000e-02	0.0	4.600000e-01	2.000000e-02	0.0	4.700000e-01	2.000000e-02	0.0	4.800000e-01	2.000000e-02	0.0	4.900000e-01	2.000000e-02	0.0	5.000000e-01	2.000000e-02	0.0	5.100000e-01	2.000000e-02	0.0	5.200000e-01	2.000000e-02	0.0	5.300000e-01	2.000000e-02	0.0	5.400000e-01	2.000000e-02	0.0	5.500000e-01	2.000000e-02	0.0	5.600000e-01	2.000000e-02	0.0	5.700000e-01	2.000000e-02	0.0	5.800000e-01	2.000000e-02	0.0	5.900000e-01	2.000000e-02	0.0	6.000000e-01	2.000000e-02	0.0	6.100000e-01	2.000000e-02	0.0	6.200000e-01	2.000000e-02	0.0	6.300000e-01	2.000000e-02	0.0	6.400000e-01	2.000000e-02	0.0	6.500000e-01	2.000000e-02	0.0	6.600000e-01	2.000000e-02	0.0	6.700000e-01	2.000000e-02	0.0	6.800000e-01	2.000000e-02	0.0	6.900000e-01	2.000000e-02	0.0	7.000000e-01	2.000000e-02	0.0	7.100000e-01	2.000000e-02	0.0	7.200000e-01	2.000000e-02	0.0	7.300000e-01	2.000000e-02	0.0	7.400000e-01	2.000000e-02	0.0	7.500000e-01	2.000000e-02	0.0	7.600000e-01	2.000000e-02	0.0	7.700000e-01	2.000000e-02	0.0	7.800000e-01	2.000000e-02	0.0	7.900000e-01	2.000000e-02	0.0	8.000000e-01	2.000000e-02	0.0	8.100000e-01	2.000000e-02	0.0	8.200000e-01	2.000000e-02	0.0	8.300000e-01	2.000000e-02	0.0	8.400000e-01	2.000000e-02	0.0	8.500000e-01	2.000000e-02	0.0	8.600000e-01	2.000000e-02	0.0	8.700000e-01	2.000000e-02	0.0	8.800000e-01	2.000000e-02	0.0	8.900000e-01	2.000000e-02	0.0	9.000000e-01	2.000000e-02	0.0	9.100000e-01	2.000000e-02	0.0	9.200000e-01	2.000000e-02	0.0	9.300000e-01	2.000000e-02	0.0	9.400000e-01	2.000000e-02	0.0	9.500000e-01	2.000000e-02	0.0	9.600000e-01	2.000000e-02	0.0	9.700000e-01	2.000000e-02	0.0	9.800000e-01	2.000000e-02	0.0	9.900000e-01	2.000000e-02	0.0	1.000000e+00	2.000000e-02	0.0	0.000000e+00	3.000000e-02	0.0	1.000000e-02	3.000000e-02	0.0	2.000000e-02	3.000000e-02	0.0	3.000000e-02	3.000000e-02	0.0	4.000000e-02	3.000000e-02	0.0	5.000000e-02	3.000000e-02	0.0	6.000000e-02	3.000000e-02	0.0	7.000000e-02	3.000000e-02	0.0	8.000000e-02	3.000000e-02	0.0	9.000000e-02	3.000000e-02	0.0	1.000000e-01	3.000000e-02	0.0	1.100000e-01	3.000000e-02	0.0	1.200000e-01	3.000000e-02	0.0	1.300000e-01	3.000000e-02	0.0	1.400000e-01	3.000000e-02	0.0	1.500000e-01	3.000000e-02	0.0	1.600000e-01	3.000000e-02	0.0	1.700000e-01	3.000000e-02	0.0	1.800000e-01	3.000000e-02	0.0	1.900000e-01	3.000000e-02	0.0	2.000000e-01	3.000000e-02	0.0	2.100000e-01	3.000000e-02	0.0	2.200000e-01	3.000000e-02	0.0	2.300000e-01	3.000000e-02	0.0	2.400000e-01	3.000000e-02	0.0	2.500000e-01	3.000000e-02	0.0	2.600000e-01	3.000000
[...]
POINT_DATA 10201

SCALARS Height double 1
LOOKUP_TABLE default
9.976996e-01	9.977228e-01	9.977251e-01	9.977191e-01	9.977191e-01	9.977154e-01	9.977079e-01	9.976959e-01	9.976829e-01	9.976665e-01	9.976455e-01	9.976196e-01	9.975875e-01	9.975506e-01	9.975095e-01	9.974646e-01	9.974158e-01	9.973635e-01	9.973059e-01	9.972442e-01	9.971766e-01	9.970967e-01	9.970088e-01	9.969119e-01	9.968069e-01	9.966898e-01	9.965601e-01	9.964134e-01	9.962461e-01	9.960553e-01	9.958367e-01	9.955842e-01	9.952869e-01	9.949124e-01	9.944089e-01	9.936945e-01	9.926632e-01	9.912311e-01	9.894245e-01	9.874649e-01	9.857438e-01	9.845806e-01	9.840034e-01	9.838975e-01	9.843527e-01	9.861326e-01	9.895934e-01	9.945839e-01	1.000682e+00	1.007384e+00	1.014134e+00	1.020216e+00	1.024823e+00	1.027536e+00	1.028503e+00	1.028092e+00	1.024811e+00	1.017416e+00	1.008565e+00	1.002261e+00	9.992619e-01	9.981773e-01	9.978397e-01	9.977360e-01	9.976908e-01	9.976465e-01	9.975760e-01	9.974627e-01	9.973045e-01	9.971096e-01	9.968869e-01	9.966390e-01	9.963572e-01	9.960153e-01	9.955626e-01	9.949181e-01	9.939726e-01	9.926231e-01	9.908669e-01	9.888949e-01	9.870883e-01	9.858043e-01	9.851214e-01	9.849442e-01	9.852516e-01	9.867556e-01	9.899456e-01	9.947609e-01	1.000822e+00	1.007611e+00	1.014554e+00	1.020922e+00	1.025883e+00	1.028914e+00	1.030102e+00	1.029885e+00	1.026994e+00	1.019946e+00	1.011123e+00	1.005023e+00	1.002994e+00	9.976951e-01	9.977371e-01	9.977189e-01	9.977190e-01	9.977187e-01	9.977147e-01	9.977069e-01	9.976945e-01	9.976802e-01	9.976621e-01	9.976396e-01	9.976120e-01	9.975785e-01	9.975401e-01	9.974972e-01	9.974502e-01	9.973989e-01	9.973441e-01	9.972836e-01	9.972186e-01	9.971496e-01	9.970710e-01	9.969858e-01	9.968924e-01	9.967885e-01	9.966740e-01	9.965455e-01	9.963989e-01	9.962313e-01	9.960393e-01	9.958194e-01	9.955657e-01	9.952644e-01	9.948865e-01	9.943775e-01	9.936560e-01	9.926188e-01	9.911809e-01	9.893671e-01	9.873904e-01	9.856157e-01	9.844020e-01	9.839268e-01	9.838979e-01	9.843759e-01	9.861140e-01	9.895731e-01	9.945853e-01	1.000727e+00	1.007464e+00	1.014235e+00	1.020391e+00	1.025209e+00	1.027914e+00	1.028498e+00	1.028050e+00	1.025001e+00	1.017822e+00	1.008629e+00	1.001918e+00	9.989461e-01	9.980247e-01	9.977811e-01	9.977101e-01	9.976734e-01	9.976315e-01	9.975622e-01	9.974495e-01	9.972905e-01	9.970937e-01	9.968686e-01	9.966181e-01	9.963330e-01	9.959872e-01	9.955292e-01	9.948780e-01	9.939259e-01	9.925721e-01	9.908100e-01	9.888232e-01	9.869696e-01	9.856256e-01	9.850202e-01	9.849399e-01	9.852740e-01	9.867443e-01	9.899239e-01	9.947597e-01	1.000864e+00	1.007692e+00	1.014660e+00	1.021092e+00	1.026258e+00	1.029341e+00	1.030139e+00	1.029841e+00	1.027177e+00	1.020389e+00	1.011220e+00	1.004604e+00	1.002233e+00	9.976968e-01	9.977490e-01	9.977348e-01	9.977325e-01	9.977307e-01	9.977252e-01	9.977156e-01	9.977010e-01	9.976848e-01	9.976653e-01	9.976414e-01	9.976130e-01	9.975792e-01	9.975407e-01	9.974978e-01	9.974507e-01	9.974003e-01	9.973471e-01	9.972874e-01	9.972243e-01	9.971564e-01	9.970762e-01	9.969887e-01	9.968935e-01	9.967885e-01	9.966706e-01	9.965414e-01	9.963937e-01	9.962255e-01	9.960331e-01	9.958126e-01	9.955573e-01	9.952510e-01	9.948645e-01	9.943417e-01	9.936020e-01	9.925521e-01	9.911265e-01	9.893584e-01	9.874307e-01	9.856687e-01	9.845253e-01	9.841812e-01	9.841864e-01	9.846978e-01	9.864261e-01	9.898165e-01	9.947708e-01	1.000795e+00	1.007397e+00	1.014062e+00	1.020256e+00	1.025130e+00	1.027534e+00	1.027954e+00	1.027488e+00	1.024686e+00	1.017971e+00	1.009003e+00	1.002100e+00	9.989663e-01	9.980156e-01	9.977738e-01	9.977036e-01	9.976668e-01	9.976255e-01	9.975580e-01	9.974481e-01	9.972917e-01	9.970962e-01	9.968707e-01	9.966174e-01	9.963259e-01	9.959693e-01	9.954961e-01	9.948245e-01	9.938543e-01	9.925059e-01	9.907833e-01	9.888479e-01	9.870101e-01	9.857164e-01	9.852494e-01	9.852084e-01	9.855821e-01	9.870554e-01	9.901760e-01	9.949645e-01	1.000957e+00	1.007648e+00	1.014492e+00	1.020939e+00	1.026178e+00	1.029000e+00	1.029571e+00	1.029254e+00	1.026831e+00	1.020496e+00	1.011602e+00	1.004750e+00	1.002196e+00	9.976864e-01	9.977429e-01	9.977283e-01	9.977264e-01	9.977240e-01	9.977180e-01	9.977084e-01	9.976939e-01	9.976774e-01	9.976579e-01	9.976342e-01	9.976059e-01	9.975727e-01	9.975349e-01	9.974924e-01	9.974453e-01	9.973945e-01	9.973413e-01	9.972828e-01	9.972202e-01	9.971523e-01	9.970714e-01	9.969825e-01	9.968856e-01	9.967781e-01	9.966574e-01	9.965256e-01	9.963745e-01	9.962031e-01	9.960076e-01	9.957832e-01	9.955220e-01	9.952061e-01	9.948009e-01	9.942522e-01	9.934769e-01	9.923891e-01	9.909490e-01	9.891924e-01	9.872814e-01	9.855950e-01	9.846561e-01	9.844273e-01	9.844659e-01	9.850613e-01	9.868830e-01	9.902924e-01	9.951772e-01	1.001088e+00	1.007554e+00	1.014170e+00	1.020427e+00	1.025118e+00	1.027113e+00	1.027386e+00	1.026887e+00	1.024154e+00	1.017757e+00	1.009154e+00	1.002368e+00	9.991230e-01	9.980599e-01	9.977750e-01	9.976901e-01	9.976474e-01	9.976034e-01	9.975354e-01	9.974266e-01	9.972714e-01	9.970757e-01	9.968482e-01	9.965901e-01	9.962888e-01	9.959136e-01	9.954141e-01	9.947068e-01	9.936975e-01	9.923258e-01	9.906114e-01	9.886913e-01	9.869071e-01	9.858034e-01	9.854845e-01	9.854740e-01	9.859256e-01	9.875045e-01	9.906707e-01	9.954028e-01	1.001293e+00	1.007843e+00	1.014614e+00	1.021123e+00	1.026223e+00	1.028591e+00	1.029011e+00	1.028653e+00	1.026281e+00	1.020290e+00	1.011775e+00	1.005050e+00	1.002450e+00	9.976856e-01	9.977423e-01	9.977255e-01	9.977237e-01	9.977199e-01	9.977127e-01	9.977021e-01	9.976863e-01	9.976680e-01	9.976466e-01	9.976214e-01	9.975928e-01	9.975599e-01	9.975224e-01	9.974802e-01	9.974333e-01	9.973827e-01	9.973297e-01	9.972725e-01	9.972106e-01	9.971426e-01	9.970610e-01	9.969707e-01	9.968716e-01	9.967611e-01	9.966375e-01	9.965017e-01	9.963466e-01	9.961713e-01	9.959716e-01	9.957425e-01	9.954739e-01	9.951432e-01	9.947135e-01	9.941257e-01	9.933040e-01	9.921710e-01	9.906998e-01	9.889388e-01	9.870754e-01	9.855941e-01	9.849068e-01	9.847575e-01	9.848495e-01	9.855547e-01	9.874921e-01	9.909454e-01	9.957464e-01	1.001492e+00	1.007808e+00	1.014419e+00	1.020618e+00	1.024888e+00	1.026499e+00	1.026678e+00	1.026130e+00	1.023423e+00	1.017332e+00	1.009260e+00	1.002735e+00	9.993803e-01	9.981637e-01	9.977953e-01	9.976797e-01	9.976252e-01	9.975761e-01	9.975068e-01	9.973992e-01	9.972455e-01	9.970498e-01	9.968196e-01	9.965545e-01	9.962386e-01	9.958390e-01	9.952997e-01	9.945458e-01	9.934906e-01	9.920821e-01	9.903554e-01	9.884600e-01	9.868488e-01	9.860124e-01	9.857973e-01	9.858385e-01	9.863923e-01	9.881034e-01	9.913439e-01	9.960215e-01	1.001755e+00	1.008133e+00	1.014877e+00	1.021350e+00	1.026061e+00	1.028015e+00	1.028288e+00	1.027895e+00	1.025549e+00	1.019875e+00	1.011892e+00	1.005488e+00	1.002913e+00	9.976838e-01	9.977386e-01	9.977180e-01	9.977173e-01	9.977127e-01	9.977044e-01	9.976929e-01	9.976761e-01	9.976563e-01	9.976342e-01	9.976087e-01	9.975792e-01	9.975454e-01	9.975071e-01	9.974645e-01	9.974179e-01	9.973679e-01	9.973151e-01	9.972589e-01	9.971968e-01	9.971280e-01	9.970457e-01	9.969538e-01	9.968521e-01	9.967381e-01	9.966125e-01	9.964718e-01	9.963126e-01	9.961329e-01	9.959286e-01	9.956929e-01	9.954141e-01	9.950636e-01	9.945995e-01	9.939588e-01	9.930720e-01	9.918843e-01	9.903702e-01	9.885951e-01	9.868589e-01	9.856755e-01	9.852143e-01	9.851568e-01	9.853174e-01	9.861779e-01	9.882657e-01	9.917660e-01	9.964580e-01	1.002016e+00	1.008216e+00	1.014795e+00	1.020754e+00	1.024497e+00	1.025739e+00	1.025849e+00	1.025220e+00	1.022489e+00	1.016715e+00	1.009297e+00	1.003177e+00	9.997458e-01	9.983210e-01	9.978324e-01	9.976698e-01	9.975979e-01	9.975414e-01	9.974694e-01	9.973625e-01	9.972105e-01	9.970147e-01	9.967805e-01	9.965051e-01	9.961704e-01	9.957378e-01	9.951478e-01	9.943279e-01	9.932133e-01	9.917629e-01	9.900041e-01	9.881950e-01	9.868580e-01	9.862839e-01	9.861784e-01	9.862823e-01	9.869874e-01	9.888712e-01	9.921961e-01	9.967940e-01	1.002333e+00	1.008574e+00	1.015283e+00	1.021555e+00	1.025737e+00	1.027282e+00	1.027459e+00	1.026996e+00	1.024628e+00	1.019259e+00	1.011939e+00	1.006064e+00	1.003606e+00	9.976803e-01	9.977300e-01	9.977070e-01	9.977073e-01	9.977019e-01	9.976930e-01	9.976808e-01	9.976636e-01	9.976430e-01	9.976204e-01	9.975944e-01	9.975640e-01	9.975290e-01	9.974896e-01	9.974465e-01	9.973998e-01	9.973496e-01	9.972968e-01	9.972412e-01	9.971775e-01	9.971074e-01	9.970238e-01	9.969300e-01	9.968256e-01	9.967082e-01	9.965796e-01	9.964344e-01	9.962702e-01	9.960849e-01	9.958752e-01	9.956319e-01	9.953382e-01	9.949613e-01	9.944511e-01	9.937433e-01	9.927763e-01	9.915084e-01	9.899386e-01	9.881942e-01	9.866832e-01	9.858509e-01	9.856080e-01	9.856125e-01	9.858916e-01	9.869417e-01	9.892033e-01	9.927411e-01	9.973028e-01	1.002673e+00	1.008777e+00	1.015226e+00	1.020774e+00	1.023959e+00	1.024856e+00	1.024895e+00	1.024161e+00	1.021380e+00	1.015960e+00	1.009287e+00	1.003669e+00	1.000201e+00	9.985381e-01	9.978889e-01	9.976602e-01	9.975650e-01	9.974990e-01	9.974234e-01	9.973165e-01	9.971662e-01	9.969704e-01	9.967310e-01	9.964422e-01	9.960811e-01	9.956047e-01	9.949524e-01	9.940564e-01	9.928600e-01	9.913385e-01	9.895779e-01	9.879524e-01	9.869659e-01	9.866388e-01	9.866174e-01	9.868217e-01	9.877236e-01	9.898092e-01	9.932147e-01	9.977058e-01	1.003047e+00	1.009168e+00	1.015757e+00	1.021655e+00	1.025266e+00	1.026415e+00	1.026515e+00	1.025954e+00	1.023541e+00	1.018503e+00	1.011954e+00	1.006749e+00	1.004506e+00	9.976752e-01	9.977139e-01	9.976935e-01	9.976923e-01	9.976859e-01	9.976762e-01	9.976637e-01	9.976468e-01	9.976262e-01	9.976037e-01	9.975778e-01	9.975470e-01	9.975117e-01	9.974724e-01	9.974292e-01	9.973823e-01	9.973317e-01	9.972781e-01	9.972205e-01	9.971555e-01	9.970828e-01	9.969967e-01	9.968999e-01	9.967924e-01	9.966711e-01	9.965391e-01	9.963889e-01	9.962192e-01	9.960275e-01	9.958105e-01	9.955574e-01	9.952427e-01	9.948291e-01	9.942590e-01	9.934696e-01	9.924085e-01	9.910465e-01	9.894227e-01	9.877833e-01	9.866006e-01	9.861189e-01	9.860595e-01	9.861272e-01	9.865791e-01	9.878605e-01	9.902969e-01	9.938518e-01	9.982819e-01	1.003486e+00	1.009452e+00	1.015636e+00	1.020635e+00	1.023231e+00	1.023852e+00	1.023817e+00	1.022957e+00	1.020139e+00	1.015132e+00	1.009258e+00	1.004192e+00	1.000726e+00	9.988127e-01	9.979683e-01	9.976528e-01	9.975262e-01	9.974482e-01	9.973679e-01	9.972601e-01	9.971107e-01	9.969145e-01	9.966682e-01	9.963607e-01	9.959652e-01	9.954336e-01	9.947045e-01	9.937166e-01	9.924210e-01	9.908235e-01	9.891212e-01	9.877849e-01	9.871764e-01	9.870656e-01	9.871083e-01	9.874736e-01	9.886191e-01	9.909151e-01	9.943779e-01	9.987554e-01	1.003918e+00	1.009887e+00	1.016234e+00	1.021611e+00	1.024615e+00	1.025429e+00	1.025452e+00	1.024775e+00	1.022317e+00	1.017656e+00	1.011968e+00	1.007509e+00	1.005576e+00	9.976668e-01	9.976964e-01	9.976789e-01	9.976754e-01	9.976672e-01	9.976564e-01	9.976431e-01	9.976262e-01	9.976052e-01	9.975821e-01	9.975555e-01	9.975241e-01	9.974885e-01	9.974488e-01	9.974058e-01	9.973597e-01	9.973100e-01	9.972551e-01	9.971957e-01	9.971309e-01	9.970546e-01	9.969658e-01	9.968655e-01	9.967536e-01	9.966304e-01	9.964930e-01	9.963364e-01	9.961601e-01	9.959619e-01	9.957361e-01	9.954653e-01	9.951213e-01	9.946567e-01	9.940109e-01	9.931236e-01	9.919500e-01	9.904865e-01	9.888464e-01	9.874197e-01	9.866821e-01	9.865053e-01	9.865294e-01	9.867252e-01	9.874093e-01	9.889479e-01	9.915399e-01	9.950865e-01	9.993963e-01	1.004441e+00	1.010183e+00	1.015962e+00	1.020317e+00	1.022334e+00	1.022724e+00	1.022618e+00	1.021611e+00	1.018800e+00	1.014281e+00	1.009230e+00	1.004726e+00	1.001298e+00	9.991367e-01	9.980726e-01	9.976505e-01	9.974848e-01	9.973919e-01	9.973053e-01	9.971953e-01	9.970451e-01	9.968456e-01	9.965894e-01	9.962575e-01	9.958169e-01	9.952157e-01	9.943925e-01	9.932907e-01	9.918789e-01	9.902268e-01	9.886868e-01	9.877802e-01	9.875113e-01	9.875200e-01	9.876699e-01	9.882651e-01	9.896886e-01	9.921799e-01	9.956696e-01	9.999425e-01	1.004937e+00	1.010678e+00	1.016642e+00	1.021387e+00	1.023783e+00	1.024321e+00	1.024270e+00	1.023466e+00	1.020997e+00	1.016781e+00	1.012000e+00	1.008317e+00	1.006771e+00	9.976540e-01	9.976767e-01	9.976602e-01	9.976555e-01	9.976456e-01	9.976342e-01	9.976206e-01	9.976038e-01	9.975822e-01	9.975578e-01	9.975297e-01	9.974972e-01	9.974609e-01	9.974216e-01	9.973785e-01	9.973317e-01	9.972808e-01	9.972251e-01	9.971636e-01	9.970958e-01	9.970180e-01	9.969269e-01	9.968237e-01	9.967102e-01	9.965840e-01	9.964403e-01	9.962777e-01	9.960947e-01	9.958893e-01	9.956509e-01	9.953561e-01	9.949694e-01	9.944365e-01	9.936955e-01	9.926918e-01	9.913891e-01	9.898207e-01	9.882575e-01	9.872290e-01	9.869145e-01	9.869219e-01	9.870364e-01	9.874387e-01	9.884058e-01	9.902064e-01	9.929214e-01	9.964390e-01	1.000642e+00	1.005508e+00	1.010911e+00	1.016125e+00	1.019797e+00	1.021272e+00	1.021484e+00	1.021291e+00	1.020148e+00	1.017414e+00	1.013453e+00	1.009210e+00	1.005257e+00	1.001893e+00	9.994945e-01	9.981937e-01	9.976512e-01	9.974401e-01	9.973314e-01	9.972381e-01	9.971252e-01	9.969720e-01	9.967657e-01	9.964928e-01	9.961282e-01	9.956291e-01	9.949399e-01	9.940012e-01	9.927611e-01	9.912216e-01	9.895915e-01	9.883850e-01	9.879432e-01	9.879161e-01	9.879998e-01	9.883419e-01	9.892243e-01	9.909385e-01	9.935921e-01	9.970785e-01	1.001257e+00	1.006083e+00	1.011486e+00	1.016902e+00	1.020970e+00	1.022777e+00	1.023100e+00	1.022974e+00	1.022045e+00	1.019627e+00	1.015935e+00	1.012074e+00	1.009152e+00	1.008046e+00	9.976360e-01	9.976532e-01	9.976364e-01	9.976314e-01	9.976202e-01	9.976085e-01	9.975945e-01	9.975779e-01	9.975556e-01	9.975297e-01	9.975004e-01	9.974671e-01	9.974307e-01	9.973909e-01	9.973477e-01	9.972999e-01	9.972474e-01	9.971895e-01	9.971250e-01	9.970535e-01	9.969731e-01	9.968793e-01	9.967733e-01	9.966577e-01	9.965248e-01	9.963762e-01	9.962079e-01	9.960186e-01	9.958035e-01	9.955482e-01	9.952208e-01	9.947774e-01	9.941585e-01	9.933028e-01	9.921568e-01	9.907003e-01	9.890668e-01	9.877741e-01	9.872982e-01	9.872502e-01	9.873379e-01	9.876314e-01	9.883043e-01	9.895837e-01	9.916282e-01	9.944297e-01	9.978994e-01	1.001989e+00	1.006639e+00	1.011574e+00	1.016063e+00	1.019022e+00	1.020055e+00	1.020131e+00	1.019848e+00	1.018601e+00	1.016044e+00	1.012702e+00	1.009225e+00	1.005776e+00	1.002488e+00	9.998677e-01	9.983239e-01	9.976503e-01	9.973882e-01	9.972600e-01	9.971595e-01	9.970443e-01	9.968893e-01	9.966743e-01	9.963776e-01	9.959664e-01	9.953918e-01	9.945937e-01	9.935114e-01	9.921036e-01	9.904489e-01	9.890083e-01	9.883556e-01	9.882465e-01	9.883137e-01	9.885583e-01	9.891647e-01	9.903724e-01	9.923638e-01	9.951406e-01	9.985981e-01	1.002673e+00	1.007308e+00	1.012257e+00	1.016937e+00	1.020282e+00	1.021607e+00	1.021767e+00	1.021564e+00	1.020542e+00	1.018264e+00	1.015173e+00	1.012196e+00	1.009998e+00	1.009354e+00	9.976125e-01	9.976253e-01	9.976075e-01	9.976029e-01	9.975914e-01	9.975789e-01	9.975641e-01	9.975472e-01	9.975242e-01	9.974972e-01	9.974671e-01	9.974335e-01	9.973970e-01	9.973574e-01	9.973134e-01	9.972647e-01	9.972103e-01	9.971504e-01	9.970828e-01	9.970072e-01	9.969225e-01	9.968259e-01	9.967180e-01	9.965951e-01	9.964565e-01	9.963007e-01	9.961263e-01	9.959290e-01	9.956993e-01	9.954201e-01	9.950481e-01	9.945326e-01	9.938088e-01	9.928125e-01	9.914854e-01	9.898567e-01	9.883505e-01	9.876204e-01	9.875049e-01	9.875766e-01	9.878187e-01	9.883608e-01	9.893525e-01	9.909466e-01	9.931990e-01	9.960531e-01	9.994554e-01	1.003403e+00	1.007765e+00	1.012103e+00	1.015750e+00	1.018007e+00	1.018685e+00	1.018671e+00	1.018295e+00	1.017016e+00	1.014751e+00	1.012065e+00	1.009286e+00	1.006280e+00	1.003067e+00	1.000240e+00	9.984562e-01	9.976462e-01	9.973298e-01	9.971808e-01	9.970706e-01	9.969491e-01	9.967869e-01	9.965577e-01	9.962299e-01	9.957591e-01	9.950884e-01	9.941538e-01	9.928867e-01	9.912800e-01	9.896639e-01	9.887226e-01	9.885185e-01	9.885673e-01	9.887642e-01	9.892467e-01	9.901735e-01	9.917170e-01	9.939504e-01	9.968109e-01	1.000219e+00	1.004160e+00	1.008533e+00	1.012931e+00	1.016719e+00	1.019321e+00	1.020283e+00	1.020326e+00	1.020056e+00	1.018995e+00	1.016965e+00	1.014527e+00	1.012375e+00	1.010835e+00	1.010650e+00	9.975822e-01	9.975918e-01	9.975732e-01	9.975696e-01	9.975583e-01	9.975450e-01	9.975290e-01	9.975118e-01	9.974885e-01	9.974609e-01	9.974307e-01	9.973970e-01	9.973603e-01	9.973202e-01	9.972755e-01	9.972252e-01	9.971687e-01	9.971053e-01	9.970357e-01	9.969578e-01	9.968695e-01	9.967699e-01	9.966548e-01	9.965261e-01	9.963799e-01	9.962159e-01	9.960325e-01	9.958235e-01	9.955756e-01	9.952588e-01	9.948277e-01	9.942203e-01	9.933648e-01	9.921786e-01	9.906207e-01	9.889568e-01	9.879287e-01	9.877157e-01	9.877511e-01	9.879478e-01	9.884204e-01	9.892693e-01	9.906047e-01	9.924906e-01	9.949029e-01	9.977773e-01	1.001091e+00	1.004838e+00	1.008797e+00	1.012407e+00	1.015133e+00	1.016710e+00	1.017183e+00	1.017103e+00	1.016662e+00	1.015453e+00	1.013602e+00	1.011565e+00	1.009394e+00	1.006762e+00	1.003606e+00	1.000594e+00	9.985837e-01	9.976394e-01	9.972660e-01	9.970938e-01	9.969721e-01	9.968425e-01	9.966690e-01	9.964167e-01	9.960423e-01	9.954908e-01	9.946957e-01	9.935752e-01	9.920638e-01	9.903337e-01	9.891019e-01	9.887556e-01	9.887567e-01	9.889139e-01	9.893274e-01	9.901127e-01	9.913937e-01	9.932560e-01	9.956830e-01	9.985906e-01	1.001928e+00	1.005681e+00	1.009677e+00	1.013387e+00	1.016256e+00	1.018058e+00	1.018808e+00	1.018789e+00	1.018470e+00	1.017465e+00	1.015797e+00	1.014025e+00	1.012612e+00	1.011645e+00	1.011894e+00	9.975460e-01	9.975543e-01	9.975339e-01	9.975317e-01	9.975207e-01	9.975066e-01	9.974896e-01	9.974725e-01	9.974489e-01	9.974216e-01	9.973909e-01	9.973574e-01	9.973202e-01	9.972787e-01	9.972322e-01	9.971793e-01	9.971196e-01	9.970526e-01	9.969778e-01	9.968952e-01	9.968018e-01	9.966978e-01	9.965792e-01	9.964439e-01	9.962911e-01	9.961193e-01	9.959254e-01	9.957023e-01	9.954254e-01	9.950597e-01	9.945500e-01	9.938222e-01	9.927817e-01	9.913292e-01	9.895823e-01	9.882705e-01	9.878792e-01	9.878720e-01	9.880167e-01	9.884246e-01	9.891923e-01	9.903901e-01	9.920668e-01	9.942021e-01	9.967235e-01	9.995869e-01	1.002783e+00	1.006233e+00	1.009628e+00	1.012400e+00	1.014223e+00	1.015156e+00	1.015524e+00	1.015435e+00	1.015001e+00	1.013999e+00	1.012642e+00	1.011217e+00	1.009547e+00	1.007211e+00	1.004089e+00	1.000908e+00	9.986950e-01	9.976258e-01	9.971957e-01	9.969987e-01	9.968636e-01	9.967224e-01	9.965312e-01	9.962439e-01	9.958042e-01	9.951429e-01	9.941726e-01	9.927867e-01	9.910315e-01	9.895344e-01	9.889494e-01	9.888984e-01	9.890071e-01	9.893551e-01	9.900555e-01	9.911933e-01	9.928336e-01	9.949757e-01	9.975448e-01	1.000467e+00	1.003701e+00	1.007181e+00	1.010629e+00	1.013512e+00	1.015486e+00	1.016562e+00	1.017131e+00	1.017168e+00	1.016848e+00	1.016032e+00	1.014818e+00	1.013682e+00	1.012896e+00	1.012408e+00	1.013046e+00	9.975045e-01	9.975140e-01	9.974893e-01	9.974890e-01	9.974783e-01	9.974639e-01	9.974465e-01	9.974293e-01	9.974059e-01	9.973786e-01	9.973477e-01	9.973134e-01	9.972755e-01	9.972322e-01	9.971836e-01	9.971282e-01	9.970656e-01	9.969951e-01	9.969160e-01	9.968284e-01	9.967289e-01	9.966191e-01	9.964936e-01	9.963507e-01	9.961897e-01	9.960092e-01	9.958043e-01	9.955573e-01	9.952421e-01	9.948110e-01	9.941959e-01	9.932962e-01	9.919758e-01	9.902334e-01	9.886697e-01	9.880219e-01	9.879674e-01	9.880475e-01	9.883723e-01	9.890610e-01	9.901765e-01	9.917405e-01	9.937286e-01	9.960592e-01	9.986446e-01	1.001458e+00	1.004484e+00	1.007509e+00	1.010129e+00	1.012052e+00	1.013029e+00	1.013437e+00	1.013667e+00	1.013689e+00	1.013394e+00	1.012749e+00	1.011912e+00	1.011010e+00	1.009730e+00	1.007615e+00	1.004500e+00	1.001170e+00	9.987846e-01	9.976025e-01	9.971172e-01	9.968937e-01	9.967420e-01	9.965838e-01	9.963654e-01	9.960272e-01	9.954960e-01	9.946767e-01	9.934404e-01	9.917334e-01	9.900139e-01	9.891417e-01	9.890145e-01	9.890716e-01	9.893321e-01	9.899475e-01	9.909953e-01	9.925111e-01	9.944878e-01	9.968575e-01	9.995191e-01	1.002413e+00	1.005498e+00	1.008573e+00	1.011277e+00	1.013293e+00	1.014416e+00	1.014923e+00	1.015247e+00	1.015456e+00	1.015279e+00	1.014778e+00	1.014077e+00	1.013485e+00	1.013210e+00	1.013103e+00	1.014072e+00	9.974582e-01	9.974714e-01	9.974395e-01	9.974415e-01	9.974310e-01	9.974172e-01	9.973997e-01	9.973824e-01	9.973597e-01	9.973318e-01	9.972999e-01	9.972647e-01	9.972252e-01	9.971793e-01	9.971282e-01	9.970699e-01	9.970042e-01	9.969302e-01	9.968464