# vtk DataFile Version 3.0
vtk output
ASCII
DATASET STRUCTURED_GRID
DIMENSIONS 101 101 1
POINTS 10201 double
0.000000e+00	0.000000e+00	0.0	1.000000e-02	0.000000e+00	0.0	2.000000e-02	0.000000e+00	0.0	3.000000e-02	0.000000e+00	0.0	4.000000e-02	0.000000e+00	0.0	5.000000e-02	0.000000e+00	0.0	6.000000e-02	0.000000e+00	0.0	7.000000e-02	0.000000e+00	0.0	8.000000e-02	0.000000e+00	0.0	9.000000e-02	0.000000e+00	0.0	1.000000e-01	0.000000e+00	0.0	1.100000e-01	0.000000e+00	0.0	1.200000e-01	0.000000e+00	0.0	1.300000e-01	0.000000e+00	0.0	1.400000e-01	0.000000e+00	0.0	1.500000e-01	0.000000e+00	0.0	1.600000e-01	0.000000e+00	0.0	1.700000e-01	0.000000e+00	0.0	1.800000e-01	0.000000e+00	0.0	1.900000e-01	0.000000e+00	0.0	2.000000e-01	0.000000e+00	0.0	2.100000e-01	0.000000e+00	0.0	2.200000e-01	0.000000e+00	0.0	2.300000e-01	0.000000e+00	0.0	2.400000e-01	0.000000e+00	0.0	2.500000e-01	0.000000e+00	0.0	2.600000e-01	0.000000e+00	0.0	2.700000e-01	0.000000e+00	0.0	2.800000e-01	0.000000e+00	0.0	2.900000e-01	0.000000e+00	0.0	3.000000e-01	0.000000e+00	0.0	3.100000e-01	0.000000e+00	0.0	3.200000e-01	0.000000e+00	0.0	3.300000e-01	0.000000e+00	0.0	3.400000e-01	0.000000e+00	0.0	3.500000e-01	0.000000e+00	0.0	3.600000e-01	0.000000e+00	0.0	3.700000e-01	0.000000e+00	0.0	3.800000e-01	0.000000e+00	0.0	3.900000e-01	0.000000e+00	0.0	4.000000e-01	0.000000e+00	0.0	4.100000e-01	0.000000e+00	0.0	4.200000e-01	0.000000e+00	0.0	4.300000e-01	0.000000e+00	0.0	4.400000e-01	0.000000e+00	0.0	4.500000e-01	0.000000e+00	0.0	4.600000e-01	0.000000e+00	0.0	4.700000e-01	0.000000e+00	0.0	4.800000e-01	0.000000e+00	0.0	4.900000e-01	0.000000e+00	0.0	5.000000e-01	0.000000e+00	0.0	5.100000e-01	0.000000e+00	0.0	5.200000e-01	0.000000e+00	0.0	5.300000e-01	0.000000e+00	0.0	5.400000e-01	0.000000e+00	0.0	5.500000e-01	0.000000e+00	0.0	5.600000e-01	0.000000e+00	0.0	5.700000e-01	0.000000e+00	0.0	5.800000e-01	0.000000e+00	0.0	5.900000e-01	0.000000e+00	0.0	6.000000e-01	0.000000e+00	0.0	6.100000e-01	0.000000e+00	0.0	6.200000e-01	0.000000e+00	0.0	6.300000e-01	0.000000e+00	0.0	6.400000e-01	0.000000e+00	0.0	6.500000e-01	0.000000e+00	0.0	6.600000e-01	0.000000e+00	0.0	6.700000e-01	0.000000e+00	0.0	6.800000e-01	0.000000e+00	0.0	6.900000e-01	0.000000e+00	0.0	7.000000e-01	0.000000e+00	0.0	7.100000e-01	0.000000e+00	0.0	7.200000e-01	0.000000e+00	0.0	7.300000e-01	0.000000e+00	0.0	7.400000e-01	0.000000e+00	0.0	7.500000e-01	0.000000e+00	0.0	7.600000e-01	0.000000e+00	0.0	7.700000e-01	0.000000e+00	0.0	7.800000e-01	0.000000e+00	0.0	7.900000e-01	0.000000e+00	0.0	8.000000e-01	0.000000e+00	0.0	8.100000e-01	0.000000e+00	0.0	8.200000e-01	0.000000e+00	0.0	8.300000e-01	0.000000e+00	0.0	8.400000e-01	0.000000e+00	0.0	8.500000e-01	0.000000e+00	0.0	8.600000e-01	0.000000e+00	0.0	8.700000e-01	0.000000e+00	0.0	8.800000e-01	0.000000e+00	0.0	8.900000e-01	0.000000e+00	0.0	9.000000e-01	0.000000e+00	0.0	9.100000e-01	0.000000e+00	0.0	9.200000e-01	0.000000e+00	0.0	9.300000e-01	0.000000e+00	0.0	9.400000e-01	0.000000e+00	0.0	9.500000e-01	0.000000e+00	0.0	9.600000e-01	0.000000e+00	0.0	9.700000e-01	0.000000e+00	0.0	9.800000e-01	0.000000e+00	0.0	9.900000e-01	0.000000e+00	0.0	1.000000e+00	0.000000e+00	0.0	0.000000e+00	1.000000e-02	0.0	1.000000e-02	1.000000e-02	0.0	2.000000e-02	1.000000e-02	0.0	3.000000e-02	1.000000e-02	0.0	4.000000e-02	1.000000e-02	0.0	5.000000e-02	1.000000e-02	0.0	6.000000e-02	1.000000e-02	0.0	7.000000e-02	1.000000e-02	0.0	8.000000e-02	1.000000e-02	0.0	9.000000e-02	1.000000e-02	0.0	1.000000e-01	1.000000e-02	0.0	1.100000e-01	1.000000e-02	0.0	1.200000e-01	1.000000e-02	0.0	1.300000e-01	1.000000e-02	0.0	1.400000e-01	1.000000e-02	0.0	1.500000e-01	1.000000e-02	0.0	1.600000e-01	1.000000e-02	0.0	1.700000e-01	1.000000e-02	0.0	1.800000e-01	1.000000e-02	0.0	1.900000e-01	1.000000e-02	0.0	2.000000e-01	1.000000e-02	0.0	2.100000e-01	1.000000e-02	0.0	2.200000e-01	1.000000e-02	0.0	2.300000e-01	1.000000e-02	0.0	2.400000e-01	1.000000e-02	0.0	2.500000e-01	1.000000e-02	0.0	2.600000e-01	1.000000e-02	0.0	2.700000e-01	1.000000e-02	0.0	2.800000e-01	1.000000e-02	0.0	2.900000e-01	1.000000e-02	0.0	3.000000e-01	1.000000e-02	0.0	3.100000e-01	1.000000e-02	0.0	3.200000e-01	1.000000e-02	0.0	3.300000e-01	1.000000e-02	0.0	3.400000e-01	1.000000e-02	0.0	3.500000e-01	1.000000e-02	0.0	3.600000e-01	1.000000e-02	0.0	3.700000e-01	1.000000e-02	0.0	3.800000e-01	1.000000e-02	0.0	3.900000e-01	1.000000e-02	0.0	4.000000e-01	1.000000e-02	0.0	4.100000e-01	1.000000e-02	0.0	4.200000e-01	1.000000e-02	0.0	4.300000e-01	1.000000e-02	0.0	4.400000e-01	1.000000e-02	0.0	4.500000e-01	1.000000e-02	0.0	4.600000e-01	1.000000e-02	0.0	4.700000e-01	1.000000e-02	0.0	4.800000e-01	1.000000e-02	0.0	4.900000e-01	1.000000e-02	0.0	5.000000e-01	1.000000e-02	0.0	5.100000e-01	1.000000e-02	0.0	5.200000e-01	1.000000e-02	0.0	5.300000e-01	1.000000e-02	0.0	5.400000e-01	1.000000e-02	0.0	5.500000e-01	1.000000e-02	0.0	5.600000e-01	1.000000e-02	0.0	5.700000e-01	1.000000e-02	0.0	5.800000e-01	1.000000e-02	0.0	5.900000e-01	1.000000e-02	0.0	6.000000e-01	1.000000e-02	0.0	6.100000e-01	1.000000e-02	0.0	6.200000e-01	1.000000e-02	0.0	6.300000e-01	1.000000e-02	0.0	6.400000e-01	1.000000e-02	0.0	6.500000e-01	1.000000e-02	0.0	6.600000e-01	1.000000e-02	0.0	6.700000e-01	1.000000e-02	0.0	6.800000e-01	1.000000e-02	0.0	6.900000e-01	1.000000e-02	0.0	7.000000e-01	1.000000e-02	0.0	7.100000e-01	1.000000e-02	0.0	7.200000e-01	1.000000e-02	0.0	7.300000e-01	1.000000e-02	0.0	7.400000e-01	1.000000e-02	0.0	7.500000e-01	1.000000e-02	0.0	7.600000e-01	1.000000e-02	0.0	7.700000e-01	1.000000e-02	0.0	7.800000e-01	1.000000e-02	0.0	7.900000e-01	1.000000e-02	0.0	8.000000e-01	1.000000e-02	0.0	8.100000e-01	1.000000e-02	0.0	8.200000e-01	1.000000e-02	0.0	8.300000e-01	1.000000e-02	0.0	8.400000e-01	1.000000e-02	0.0	8.500000e-01	1.000000e-02	0.0	8.600000e-01	1.000000e-02	0.0	8.700000e-01	1.000000e-02	0.0	8.800000e-01	1.000000e-02	0.0	8.900000e-01	1.000000e-02	0.0	9.000000e-01	1.000000e-02	0.0	9.100000e-01	1.000000e-02	0.0	9.200000e-01	1.000000e-02	0.0	9.300000e-01	1.000000e-02	0.0	9.400000e-01	1.000000e-02	0.0	9.500000e-01	1.000000e-02	0.0	9.600000e-01	1.000000e-02	0.0	9.700000e-01	1.000000e-02	0.0	9.800000e-01	1.000000e-02	0.0	9.900000e-01	1.000000e-02	0.0	1.000000e+00	1.000000e-02	0.0	0.000000e+00	2.000000e-02	0.0	1.000000e-02	2.000000e-02	0.0	2.000000e-02	2.000000e-02	0.0	3.000000e-02	2.000000e-02	0.0	4.000000e-02	2.000000e-02	0.0	5.000000e-02	2.000000e-02	0.0	6.000000e-02	2.000000e-02	0.0	7.000000e-02	2.000000e-02	0.0	8.000000e-02	2.000000e-02	0.0	9.000000e-02	2.000000e-02	0.0	1.000000e-01	2.000000e-02	0.0	1.100000e-01	2.000000e-02	0.0	1.200000e-01	2.000000e-02	0.0	1.300000e-01	2.000000e-02	0.0	1.400000e-01	2.000000e-02	0.0	1.500000e-01	2.000000e-02	0.0	1.600000e-01	2.000000e-02	0.0	1.700000e-01	2.000000e-02	0.0	1.800000e-01	2.000000e-02	0.0	1.900000e-01	2.000000e-02	0.0	2.000000e-01	2.000000e-02	0.0	2.100000e-01	2.000000e-02	0.0	2.200000e-01	2.000000e-02	0.0	2.300000e-01	2.000000e-02	0.0	2.400000e-01	2.000000e-02	0.0	2.500000e-01	2.000000e-02	0.0	2.600000e-01	2.000000e-02	0.0	2.700000e-01	2.000000e-02	0.0	2.800000e-01	2.000000e-02	0.0	2.900000e-01	2.000000e-02	0.0	3.000000e-01	2.000000e-02	0.0	3.100000e-01	2.000000e-02	0.0	3.200000e-01	2.000000e-02	0.0	3.300000e-01	2.000000e-02	0.0	3.400000e-01	2.000000e-02	0.0	3.500000e-01	2.000000e-02	0.0	3.600000e-01	2.000000e-02	0.0	3.700000e-01	2.000000e-02	0.0	3.800000e-01	2.000000e-02	0.0	3.900000e-01	2.000000e-02	0.0	4.000000e-01	2.000000e-02	0.0	4.100000e-01	2.000000e-02	0.0	4.200000e-01	2.000000e-02	0.0	4.300000e-01	2.000000e-02	0.0	4.400000e-01	2.000000e-02	0.0	4.500000e-01	2.000000e-02	0.0	4.600000e-01	2.000000e-02	0.0	4.700000e-01	2.000000e-02	0.0	4.800000e-01	2.000000e-02	0.0	4.900000e-01	2.000000e-02	0.0	5.000000e-01	2.000000e-02	0.0	5.100000e-01	2.000000e-02	0.0	5.200000e-01	2.000000e-02	0.0	5.300000e-01	2.000000e-02	0.0	5.400000e-01	2.000000e-02	0.0	5.500000e-01	2.000000e-02	0.0	5.600000e-01	2.000000e-02	0.0	5.700000e-01	2.000000e-02	0.0	5.800000e-01	2.000000e-02	0.0	5.900000e-01	2.000000e-02	0.0	6.000000e-01	2.000000e-02	0.0	6.100000e-01	2.000000e-02	0.0	6.200000e-01	2.000000e-02	0.0	6.300000e-01	2.000000e-02	0.0	6.400000e-01	2.000000e-02	0.0	6.500000e-01	2.000000e-02	0.0	6.600000e-01	2.000000e-02	0.0	6.700000e-01	2.000000e-02	0.0	6.800000e-01	2.000000e-02	0.0	6.900000e-01	2.000000e-02	0.0	7.000000e-01	2.000000e-02	0.0	7.100000e-01	2.000000e-02	0.0	7.200000e-01	2.000000e-02	0.0	7.300000e-01	2.000000e-02	0.0	7.400000e-01	2.000000e-02	0.0	7.500000e-01	2.000000e-02	0.0	7.600000e-01	2.000000e-02	0.0	7.700000e-01	2.000000e-02	0.0	7.800000e-01	2.000000e-02	0.0	7.900000e-01	2.000000e-02	0.0	8.000000e-01	2.000000e-02	0.0	8.100000e-01	2.000000e-02	0.0	8.200000e-01	2.000000e-02	0.0	8.300000e-01	2.000000e-02	0.0	8.400000e-01	2.000000e-02	0.0	8.500000e-01	2.000000e-02	0.0	8.600000e-01	2.000000e-02	0.0	8.700000e-01	2.000000e-02	0.0	8.800000e-01	2.000000e-02	0.0	8.900000e-01	2.000000e-02	0.0	9.000000e-01	2.000000e-02	0.0	9.100000e-01	2.000000e-02	0.0	9.200000e-01	2.000000e-02	0.0	9.300000e-01	2.000000e-02	0.0	9.400000e-01	2.000000e-02	0.0	9.500000e-01	2.000000e-02	0.0	9.600000e-01	2.000000e-02	0.0	9.700000e-01	2.000000e-02	0.0	9.800000e-01	2.000000e-02	0.0	9.900000e-01	2.000000e-02	0.0	1.000000e+00	2.000000e-02	0.0	0.000000e+00	3.000000e-02	0.0	1.000000e-02	3.000000e-02	0.0	2.000000e-02	3.000000e-02	0.0	3.000000e-02	3.000000e-02	0.0	4.000000e-02	3.000000e-02	0.0	5.000000e-02	3.000000e-02	0.0	6.000000e-02	3.000000e-02	0.0	7.000000e-02	3.000000e-02	0.0	8.000000e-02	3.000000e-02	0.0	9.000000e-02	3.000000e-02	0.0	1.000000e-01	3.000000e-02	0.0	1.100000e-01	3.000000e-02	0.0	1.200000e-01	3.000000e-02	0.0	1.300000e-01	3.000000e-02	0.0	1.400000e-01	3.000000e-02	0.0	1.500000e-01	3.000000e-02	0.0	1.600000e-01	3.000000e-02	0.0	1.700000e-01	3.000000e-02	0.0	1.800000e-01	3.000000e-02	0.0	1.900000e-01	3.000000e-02	0.0	2.000000e-01	3.000000e-02	0.0	2.100000e-01	3.000000e-02	0.0	2.200000e-01	3.000000e-02	0.0	2.300000e-01	3.000000e-02	0.0	2.400000e-01	3.000000e-02	0.0	2.500000e-01	3.000000e-02	0.0	2.600000e-01	3.000000
[...]
POINT_DATA 10201

SCALARS Height double 1
LOOKUP_TABLE default
9.993047e-01	9.993133e-01	9.993251e-01	9.993236e-01	9.993239e-01	9.993239e-01	9.993223e-01	9.993169e-01	9.993118e-01	9.993091e-01	9.993075e-01	9.993078e-01	9.993086e-01	9.993090e-01	9.993085e-01	9.993070e-01	9.993052e-01	9.993066e-01	9.993079e-01	9.993085e-01	9.993081e-01	9.993019e-01	9.992953e-01	9.992847e-01	9.992753e-01	9.992677e-01	9.992609e-01	9.992528e-01	9.992447e-01	9.992374e-01	9.992311e-01	9.992254e-01	9.992194e-01	9.992126e-01	9.992049e-01	9.991963e-01	9.991877e-01	9.991800e-01	9.991729e-01	9.991659e-01	9.991580e-01	9.991474e-01	9.991338e-01	9.991189e-01	9.991057e-01	9.990951e-01	9.990977e-01	9.991567e-01	9.993592e-01	9.999663e-01	1.001566e+00	1.004842e+00	1.009618e+00	1.014309e+00	1.017239e+00	1.018263e+00	1.018314e+00	1.017774e+00	1.016306e+00	1.013608e+00	1.009868e+00	1.005592e+00	1.001322e+00	9.974250e-01	9.941445e-01	9.916577e-01	9.900564e-01	9.892541e-01	9.889938e-01	9.889559e-01	9.891069e-01	9.895609e-01	9.903784e-01	9.914473e-01	9.925255e-01	9.934235e-01	9.940792e-01	9.945169e-01	9.947889e-01	9.949399e-01	9.949913e-01	9.949432e-01	9.947675e-01	9.944253e-01	9.938754e-01	9.930907e-01	9.920805e-01	9.909652e-01	9.900577e-01	9.898215e-01	9.908862e-01	9.938291e-01	9.986074e-01	1.003862e+00	1.008126e+00	1.011213e+00	1.013981e+00	1.016961e+00	1.019636e+00	1.021593e+00	1.021738e+00	9.993160e-01	9.993197e-01	9.993282e-01	9.993263e-01	9.993251e-01	9.993235e-01	9.993215e-01	9.993186e-01	9.993154e-01	9.993132e-01	9.993118e-01	9.993112e-01	9.993103e-01	9.993091e-01	9.993071e-01	9.993049e-01	9.992986e-01	9.993006e-01	9.992968e-01	9.992945e-01	9.992920e-01	9.992868e-01	9.992847e-01	9.992763e-01	9.992660e-01	9.992619e-01	9.992558e-01	9.992490e-01	9.992422e-01	9.992360e-01	9.992306e-01	9.992256e-01	9.992202e-01	9.992138e-01	9.992059e-01	9.991967e-01	9.991875e-01	9.991791e-01	9.991719e-01	9.991652e-01	9.991575e-01	9.991466e-01	9.991325e-01	9.991172e-01	9.991029e-01	9.990890e-01	9.990809e-01	9.990993e-01	9.992301e-01	9.997562e-01	1.001349e+00	1.004816e+00	1.009829e+00	1.014503e+00	1.017302e+00	1.018273e+00	1.018352e+00	1.017989e+00	1.016490e+00	1.013668e+00	1.009841e+00	1.005535e+00	1.001242e+00	9.973226e-01	9.940284e-01	9.915532e-01	9.899853e-01	9.892204e-01	9.889679e-01	9.889134e-01	9.890228e-01	9.894920e-01	9.903446e-01	9.914310e-01	9.925130e-01	9.934103e-01	9.940655e-01	9.945042e-01	9.947781e-01	9.949313e-01	9.949847e-01	9.949367e-01	9.947588e-01	9.944128e-01	9.938608e-01	9.930754e-01	9.920612e-01	9.909138e-01	9.899006e-01	9.895330e-01	9.905712e-01	9.937492e-01	9.987868e-01	1.004064e+00	1.008170e+00	1.011118e+00	1.013895e+00	1.017023e+00	1.019723e+00	1.021601e+00	1.021929e+00	9.993205e-01	9.993230e-01	9.993349e-01	9.993323e-01	9.993298e-01	9.993280e-01	9.993268e-01	9.993238e-01	9.993190e-01	9.993150e-01	9.993119e-01	9.993098e-01	9.993081e-01	9.993066e-01	9.993048e-01	9.993031e-01	9.992994e-01	9.993016e-01	9.992997e-01	9.992995e-01	9.992985e-01	9.992928e-01	9.992877e-01	9.992784e-01	9.992686e-01	9.992598e-01	9.992524e-01	9.992454e-01	9.992396e-01	9.992349e-01	9.992312e-01	9.992275e-01	9.992230e-01	9.992169e-01	9.992088e-01	9.991997e-01	9.991903e-01	9.991816e-01	9.991740e-01	9.991671e-01	9.991595e-01	9.991498e-01	9.991371e-01	9.991219e-01	9.991057e-01	9.990905e-01	9.990803e-01	9.990937e-01	9.992139e-01	9.997370e-01	1.001389e+00	1.004981e+00	1.010000e+00	1.014494e+00	1.017139e+00	1.018089e+00	1.018195e+00	1.017926e+00	1.016505e+00	1.013609e+00	1.009775e+00	1.005543e+00	1.001311e+00	9.974146e-01	9.941290e-01	9.916651e-01	9.900912e-01	9.892933e-01	9.890126e-01	9.889517e-01	9.890252e-01	9.894836e-01	9.903635e-01	9.914519e-01	9.925171e-01	9.934030e-01	9.940556e-01	9.944957e-01	9.947717e-01	9.949260e-01	9.949793e-01	9.949298e-01	9.947490e-01	9.943993e-01	9.938452e-01	9.930627e-01	9.920601e-01	9.909237e-01	9.898919e-01	9.894855e-01	9.905931e-01	9.939199e-01	9.989905e-01	1.004145e+00	1.008113e+00	1.011041e+00	1.013823e+00	1.017004e+00	1.019764e+00	1.021548e+00	1.021823e+00	9.993175e-01	9.993192e-01	9.993325e-01	9.993297e-01	9.993270e-01	9.993256e-01	9.993251e-01	9.993223e-01	9.993185e-01	9.993154e-01	9.993133e-01	9.993121e-01	9.993109e-01	9.993094e-01	9.993071e-01	9.993045e-01	9.992996e-01	9.993013e-01	9.992997e-01	9.992994e-01	9.992985e-01	9.992932e-01	9.992881e-01	9.992789e-01	9.992695e-01	9.992615e-01	9.992538e-01	9.992472e-01	9.992418e-01	9.992373e-01	9.992335e-01	9.992293e-01	9.992240e-01	9.992170e-01	9.992082e-01	9.991988e-01	9.991894e-01	9.991807e-01	9.991728e-01	9.991655e-01	9.991576e-01	9.991480e-01	9.991354e-01	9.991198e-01	9.991032e-01	9.990864e-01	9.990741e-01	9.990818e-01	9.991855e-01	9.996891e-01	1.001363e+00	1.005030e+00	1.010084e+00	1.014498e+00	1.017036e+00	1.017954e+00	1.018069e+00	1.017852e+00	1.016568e+00	1.013669e+00	1.009776e+00	1.005567e+00	1.001393e+00	9.975204e-01	9.942379e-01	9.917637e-01	9.901745e-01	9.893647e-01	9.890687e-01	9.889957e-01	9.890331e-01	9.894379e-01	9.903191e-01	9.914192e-01	9.924794e-01	9.933621e-01	9.940193e-01	9.944662e-01	9.947475e-01	9.949044e-01	9.949577e-01	9.949060e-01	9.947210e-01	9.943648e-01	9.938032e-01	9.930164e-01	9.920170e-01	9.908828e-01	9.898249e-01	9.894096e-01	9.905906e-01	9.940056e-01	9.991164e-01	1.004218e+00	1.008103e+00	1.011007e+00	1.013791e+00	1.017007e+00	1.019860e+00	1.021632e+00	1.021878e+00	9.993189e-01	9.993208e-01	9.993334e-01	9.993303e-01	9.993271e-01	9.993256e-01	9.993243e-01	9.993215e-01	9.993183e-01	9.993158e-01	9.993141e-01	9.993130e-01	9.993117e-01	9.993099e-01	9.993071e-01	9.993039e-01	9.992987e-01	9.992997e-01	9.992978e-01	9.992974e-01	9.992968e-01	9.992921e-01	9.992875e-01	9.992789e-01	9.992700e-01	9.992620e-01	9.992549e-01	9.992485e-01	9.992436e-01	9.992398e-01	9.992362e-01	9.992317e-01	9.992258e-01	9.992180e-01	9.992088e-01	9.991988e-01	9.991889e-01	9.991799e-01	9.991719e-01	9.991647e-01	9.991569e-01	9.991476e-01	9.991352e-01	9.991195e-01	9.991029e-01	9.990856e-01	9.990721e-01	9.990773e-01	9.991740e-01	9.996624e-01	1.001336e+00	1.005039e+00	1.010086e+00	1.014444e+00	1.016917e+00	1.017806e+00	1.017918e+00	1.017736e+00	1.016592e+00	1.013784e+00	1.009847e+00	1.005627e+00	1.001502e+00	9.976761e-01	9.944098e-01	9.919249e-01	9.903111e-01	9.894713e-01	9.891568e-01	9.890758e-01	9.890857e-01	9.894226e-01	9.902642e-01	9.913696e-01	9.924322e-01	9.933134e-01	9.939746e-01	9.944295e-01	9.947172e-01	9.948762e-01	9.949290e-01	9.948745e-01	9.946853e-01	9.943221e-01	9.937525e-01	9.929616e-01	9.919622e-01	9.908226e-01	9.897610e-01	9.893982e-01	9.906437e-01	9.941019e-01	9.992324e-01	1.004298e+00	1.008128e+00	1.011010e+00	1.013796e+00	1.017018e+00	1.019940e+00	1.021788e+00	1.022046e+00	9.993229e-01	9.993252e-01	9.993354e-01	9.993320e-01	9.993284e-01	9.993265e-01	9.993247e-01	9.993217e-01	9.993183e-01	9.993162e-01	9.993152e-01	9.993145e-01	9.993131e-01	9.993108e-01	9.993077e-01	9.993041e-01	9.992986e-01	9.992984e-01	9.992961e-01	9.992951e-01	9.992945e-01	9.992905e-01	9.992878e-01	9.992792e-01	9.992711e-01	9.992646e-01	9.992578e-01	9.992518e-01	9.992471e-01	9.992432e-01	9.992393e-01	9.992342e-01	9.992271e-01	9.992183e-01	9.992086e-01	9.991984e-01	9.991886e-01	9.991799e-01	9.991723e-01	9.991652e-01	9.991575e-01	9.991484e-01	9.991359e-01	9.991201e-01	9.991037e-01	9.990864e-01	9.990724e-01	9.990767e-01	9.991713e-01	9.996542e-01	1.001317e+00	1.005008e+00	1.010036e+00	1.014336e+00	1.016769e+00	1.017644e+00	1.017757e+00	1.017596e+00	1.016577e+00	1.013921e+00	1.010000e+00	1.005745e+00	1.001632e+00	9.978556e-01	9.946112e-01	9.921171e-01	9.904768e-01	9.896039e-01	9.892587e-01	9.891649e-01	9.891577e-01	9.894283e-01	9.902009e-01	9.912945e-01	9.923675e-01	9.932530e-01	9.939187e-01	9.943827e-01	9.946788e-01	9.948427e-01	9.948959e-01	9.948373e-01	9.946407e-01	9.942683e-01	9.936908e-01	9.928954e-01	9.918895e-01	9.907377e-01	9.897016e-01	9.894269e-01	9.907314e-01	9.941873e-01	9.992912e-01	1.004330e+00	1.008153e+00	1.011041e+00	1.013833e+00	1.017042e+00	1.020022e+00	1.022020e+00	1.022352e+00	9.993291e-01	9.993310e-01	9.993374e-01	9.993335e-01	9.993302e-01	9.993275e-01	9.993250e-01	9.993213e-01	9.993184e-01	9.993162e-01	9.993150e-01	9.993143e-01	9.993130e-01	9.993107e-01	9.993076e-01	9.993041e-01	9.992990e-01	9.992976e-01	9.992951e-01	9.992936e-01	9.992927e-01	9.992893e-01	9.992870e-01	9.992787e-01	9.992711e-01	9.992655e-01	9.992591e-01	9.992532e-01	9.992482e-01	9.992437e-01	9.992387e-01	9.992323e-01	9.992250e-01	9.992169e-01	9.992077e-01	9.991983e-01	9.991889e-01	9.991804e-01	9.991731e-01	9.991663e-01	9.991588e-01	9.991497e-01	9.991367e-01	9.991212e-01	9.991051e-01	9.990883e-01	9.990748e-01	9.990798e-01	9.991766e-01	9.996627e-01	1.001317e+00	1.004961e+00	1.009919e+00	1.014165e+00	1.016577e+00	1.017455e+00	1.017574e+00	1.017434e+00	1.016522e+00	1.014041e+00	1.010209e+00	1.005930e+00	1.001814e+00	9.980692e-01	9.948452e-01	9.923382e-01	9.906610e-01	9.897461e-01	9.893674e-01	9.892587e-01	9.892348e-01	9.894406e-01	9.901267e-01	9.911892e-01	9.922793e-01	9.931784e-01	9.938510e-01	9.943238e-01	9.946311e-01	9.948035e-01	9.948581e-01	9.947934e-01	9.945857e-01	9.942015e-01	9.936152e-01	9.928136e-01	9.917930e-01	9.906277e-01	9.896461e-01	9.894792e-01	9.908413e-01	9.942656e-01	9.993034e-01	1.004300e+00	1.008140e+00	1.011071e+00	1.013881e+00	1.017075e+00	1.020126e+00	1.022306e+00	1.022753e+00	9.993287e-01	9.993317e-01	9.993366e-01	9.993332e-01	9.993304e-01	9.993275e-01	9.993244e-01	9.993201e-01	9.993164e-01	9.993137e-01	9.993125e-01	9.993121e-01	9.993113e-01	9.993097e-01	9.993072e-01	9.993042e-01	9.993006e-01	9.992969e-01	9.992971e-01	9.992944e-01	9.992931e-01	9.992897e-01	9.992861e-01	9.992782e-01	9.992714e-01	9.992651e-01	9.992586e-01	9.992522e-01	9.992463e-01	9.992406e-01	9.992347e-01	9.992287e-01	9.992219e-01	9.992145e-01	9.992063e-01	9.991972e-01	9.991882e-01	9.991800e-01	9.991729e-01	9.991664e-01	9.991592e-01	9.991493e-01	9.991359e-01	9.991206e-01	9.991051e-01	9.990891e-01	9.990760e-01	9.990825e-01	9.991848e-01	9.996814e-01	1.001328e+00	1.004906e+00	1.009758e+00	1.013938e+00	1.016334e+00	1.017226e+00	1.017356e+00	1.017242e+00	1.016430e+00	1.014133e+00	1.010441e+00	1.006190e+00	1.002057e+00	9.983208e-01	9.951142e-01	9.925911e-01	9.908657e-01	9.898958e-01	9.894769e-01	9.893479e-01	9.893128e-01	9.894527e-01	9.900379e-01	9.910487e-01	9.921486e-01	9.930731e-01	9.937630e-01	9.942501e-01	9.945716e-01	9.947532e-01	9.948091e-01	9.947367e-01	9.945147e-01	9.941160e-01	9.935169e-01	9.926972e-01	9.916534e-01	9.904909e-01	9.895909e-01	9.895436e-01	9.909643e-01	9.943371e-01	9.992780e-01	1.004225e+00	1.008093e+00	1.011086e+00	1.013928e+00	1.017116e+00	1.020257e+00	1.022611e+00	1.023188e+00	9.993261e-01	9.993333e-01	9.993332e-01	9.993317e-01	9.993288e-01	9.993259e-01	9.993223e-01	9.993181e-01	9.993132e-01	9.993105e-01	9.993086e-01	9.993082e-01	9.993077e-01	9.993069e-01	9.993054e-01	9.993034e-01	9.993002e-01	9.992983e-01	9.992965e-01	9.992957e-01	9.992936e-01	9.992901e-01	9.992846e-01	9.992771e-01	9.992711e-01	9.992641e-01	9.992571e-01	9.992501e-01	9.992432e-01	9.992366e-01	9.992306e-01	9.992246e-01	9.992188e-01	9.992121e-01	9.992042e-01	9.991954e-01	9.991866e-01	9.991788e-01	9.991719e-01	9.991653e-01	9.991575e-01	9.991469e-01	9.991331e-01	9.991176e-01	9.991027e-01	9.990878e-01	9.990746e-01	9.990827e-01	9.991935e-01	9.997056e-01	1.001346e+00	1.004841e+00	1.009565e+00	1.013667e+00	1.016050e+00	1.016957e+00	1.017103e+00	1.017007e+00	1.016303e+00	1.014196e+00	1.010670e+00	1.006482e+00	1.002346e+00	9.986116e-01	9.954183e-01	9.928829e-01	9.911050e-01	9.900672e-01	9.895959e-01	9.894400e-01	9.893910e-01	9.894682e-01	9.899420e-01	9.908791e-01	9.919791e-01	9.929373e-01	9.936564e-01	9.941618e-01	9.944966e-01	9.946876e-01	9.947442e-01	9.946624e-01	9.944266e-01	9.940137e-01	9.933972e-01	9.925493e-01	9.914777e-01	9.903358e-01	9.895405e-01	9.896240e-01	9.911001e-01	9.944105e-01	9.992353e-01	1.004131e+00	1.008041e+00	1.011100e+00	1.013973e+00	1.017166e+00	1.020402e+00	1.022910e+00	1.023618e+00	9.993246e-01	9.993308e-01	9.993279e-01	9.993275e-01	9.993249e-01	9.993220e-01	9.993184e-01	9.993145e-01	9.993104e-01	9.993063e-01	9.993044e-01	9.993032e-01	9.993029e-01	9.993027e-01	9.993020e-01	9.993006e-01	9.992984e-01	9.992971e-01	9.992954e-01	9.992935e-01	9.992914e-01	9.992871e-01	9.992822e-01	9.992763e-01	9.992687e-01	9.992622e-01	9.992552e-01	9.992478e-01	9.992404e-01	9.992337e-01	9.992276e-01	9.992221e-01	9.992161e-01	9.992093e-01	9.992010e-01	9.991920e-01	9.991834e-01	9.991758e-01	9.991689e-01	9.991619e-01	9.991534e-01	9.991420e-01	9.991275e-01	9.991118e-01	9.990971e-01	9.990833e-01	9.990705e-01	9.990800e-01	9.992017e-01	9.997355e-01	1.001370e+00	1.004767e+00	1.009340e+00	1.013357e+00	1.015735e+00	1.016662e+00	1.016826e+00	1.016743e+00	1.016141e+00	1.014233e+00	1.010892e+00	1.006794e+00	1.002673e+00	9.989375e-01	9.957535e-01	9.932134e-01	9.913893e-01	9.902757e-01	9.897360e-01	9.895424e-01	9.894797e-01	9.894993e-01	9.898526e-01	9.906924e-01	9.917744e-01	9.927652e-01	9.935236e-01	9.940563e-01	9.944074e-01	9.946066e-01	9.946636e-01	9.945738e-01	9.943233e-01	9.938911e-01	9.932477e-01	9.923641e-01	9.912701e-01	9.901707e-01	9.895044e-01	9.897344e-01	9.912529e-01	9.944922e-01	9.991946e-01	1.004041e+00	1.007999e+00	1.011125e+00	1.014025e+00	1.017226e+00	1.020552e+00	1.023200e+00	1.024034e+00	9.993203e-01	9.993257e-01	9.993210e-01	9.993213e-01	9.993187e-01	9.993158e-01	9.993126e-01	9.993095e-01	9.993062e-01	9.993034e-01	9.993000e-01	9.992994e-01	9.992986e-01	9.992985e-01	9.992983e-01	9.992975e-01	9.992957e-01	9.992939e-01	9.992910e-01	9.992874e-01	9.992837e-01	9.992800e-01	9.992761e-01	9.992712e-01	9.992659e-01	9.992600e-01	9.992530e-01	9.992454e-01	9.992381e-01	9.992318e-01	9.992261e-01	9.992204e-01	9.992137e-01	9.992058e-01	9.991968e-01	9.991876e-01	9.991791e-01	9.991715e-01	9.991645e-01	9.991569e-01	9.991474e-01	9.991350e-01	9.991196e-01	9.991035e-01	9.990888e-01	9.990758e-01	9.990642e-01	9.990760e-01	9.992108e-01	9.997723e-01	1.001402e+00	1.004687e+00	1.009086e+00	1.013007e+00	1.015388e+00	1.016348e+00	1.016534e+00	1.016466e+00	1.015955e+00	1.014249e+00	1.011107e+00	1.007118e+00	1.003029e+00	9.992970e-01	9.961182e-01	9.935745e-01	9.917119e-01	9.905241e-01	9.899052e-01	9.896602e-01	9.895786e-01	9.895546e-01	9.897842e-01	9.904990e-01	9.915409e-01	9.925597e-01	9.933636e-01	9.939323e-01	9.943048e-01	9.945137e-01	9.945710e-01	9.944730e-01	9.942060e-01	9.937479e-01	9.930684e-01	9.921453e-01	9.910379e-01	9.900049e-01	9.894933e-01	9.898672e-01	9.914251e-01	9.945860e-01	9.991616e-01	1.003957e+00	1.007968e+00	1.011162e+00	1.014096e+00	1.017307e+00	1.020710e+00	1.023480e+00	1.024433e+00	9.993145e-01	9.993190e-01	9.993141e-01	9.993150e-01	9.993123e-01	9.993095e-01	9.993066e-01	9.993044e-01	9.993021e-01	9.993003e-01	9.992984e-01	9.992967e-01	9.992964e-01	9.992960e-01	9.992955e-01	9.992947e-01	9.992929e-01	9.992903e-01	9.992863e-01	9.992816e-01	9.992771e-01	9.992732e-01	9.992703e-01	9.992662e-01	9.992618e-01	9.992566e-01	9.992500e-01	9.992431e-01	9.992364e-01	9.992307e-01	9.992246e-01	9.992185e-01	9.992110e-01	9.992022e-01	9.991926e-01	9.991834e-01	9.991750e-01	9.991675e-01	9.991602e-01	9.991519e-01	9.991415e-01	9.991277e-01	9.991113e-01	9.990945e-01	9.990798e-01	9.990676e-01	9.990570e-01	9.990725e-01	9.992246e-01	9.998177e-01	1.001442e+00	1.004604e+00	1.008809e+00	1.012618e+00	1.015006e+00	1.016012e+00	1.016229e+00	1.016178e+00	1.015758e+00	1.014252e+00	1.011322e+00	1.007457e+00	1.003415e+00	9.996957e-01	9.965175e-01	9.939613e-01	9.920584e-01	9.907991e-01	9.900994e-01	9.897922e-01	9.896824e-01	9.896309e-01	9.897494e-01	9.903131e-01	9.912875e-01	9.923254e-01	9.931771e-01	9.937877e-01	9.941867e-01	9.944076e-01	9.944656e-01	9.943585e-01	9.940723e-01	9.935832e-01	9.928617e-01	9.918978e-01	9.907889e-01	9.898528e-01	9.895199e-01	9.900255e-01	9.916104e-01	9.946959e-01	9.991341e-01	1.003867e+00	1.007925e+00	1.011204e+00	1.014190e+00	1.017415e+00	1.020881e+00	1.023755e+00	1.024817e+00	9.993094e-01	9.993119e-01	9.993081e-01	9.993095e-01	9.993069e-01	9.993045e-01	9.993021e-01	9.993005e-01	9.992990e-01	9.992976e-01	9.992968e-01	9.992957e-01	9.992941e-01	9.992943e-01	9.992938e-01	9.992926e-01	9.992905e-01	9.992872e-01	9.992825e-01	9.992769e-01	9.992716e-01	9.992677e-01	9.992652e-01	9.992618e-01	9.992579e-01	9.992531e-01	9.992468e-01	9.992405e-01	9.992343e-01	9.992284e-01	9.992223e-01	9.992157e-01	9.992078e-01	9.991987e-01	9.991893e-01	9.991805e-01	9.991724e-01	9.991649e-01	9.991572e-01	9.991483e-01	9.991369e-01	9.991219e-01	9.991044e-01	9.990871e-01	9.990722e-01	9.990603e-01	9.990504e-01	9.990724e-01	9.992463e-01	9.998723e-01	1.001489e+00	1.004524e+00	1.008520e+00	1.012197e+00	1.014584e+00	1.015647e+00	1.015906e+00	1.015873e+00	1.015543e+00	1.014241e+00	1.011536e+00	1.007818e+00	1.003841e+00	1.000142e+00	9.969607e-01	9.943802e-01	9.924275e-01	9.910935e-01	9.903099e-01	9.899355e-01	9.897875e-01	9.897169e-01	9.897516e-01	9.901569e-01	9.910276e-01	9.920682e-01	9.929677e-01	9.936237e-01	9.940523e-01	9.942870e-01	9.943459e-01	9.942286e-01	9.939213e-01	9.933985e-01	9.926322e-01	9.916291e-01	9.905375e-01	9.897336e-01	9.895861e-01	9.902005e-01	9.918056e-01	9.948166e-01	9.991138e-01	1.003767e+00	1.007870e+00	1.011249e+00	1.014309e+00	1.017551e+00	1.021063e+00	1.024024e+00	1.025181e+00	9.993068e-01	9.993066e-01	9.993034e-01	9.993053e-01	9.993031e-01	9.993015e-01	9.992996e-01	9.992986e-01	9.992976e-01	9.992964e-01	9.992954e-01	9.992951e-01	9.992940e-01	9.992924e-01	9.992921e-01	9.992908e-01	9.992882e-01	9.992847e-01	9.992796e-01	9.992733e-01	9.992674e-01	9.992639e-01	9.992617e-01	9.992587e-01	9.992549e-01	9.992500e-01	9.992446e-01	9.992380e-01	9.992319e-01	9.992257e-01	9.992194e-01	9.992124e-01	9.992041e-01	9.991957e-01	9.991870e-01	9.991787e-01	9.991709e-01	9.991634e-01	9.991555e-01	9.991462e-01	9.991341e-01	9.991182e-01	9.991001e-01	9.990824e-01	9.990671e-01	9.990543e-01	9.990459e-01	9.990788e-01	9.992769e-01	9.999345e-01	1.001543e+00	1.004448e+00	1.008227e+00	1.011754e+00	1.014129e+00	1.015249e+00	1.015554e+00	1.015543e+00	1.015295e+00	1.014198e+00	1.011741e+00	1.008198e+00	1.004309e+00	1.000642e+00	9.974574e-01	9.948457e-01	9.928338e-01	9.914169e-01	9.905419e-01	9.900908e-01	9.898989e-01	9.898107e-01	9.897887e-01	9.900424e-01	9.907769e-01	9.917938e-01	9.927381e-01	9.934436e-01	9.939050e-01	9.941553e-01	9.942154e-01	9.940868e-01	9.937563e-01	9.931969e-01	9.923820e-01	9.913443e-01	9.902998e-01	9.896615e-01	9.896830e-01	9.903882e-01	9.920123e-01	9.949554e-01	9.991115e-01	1.003680e+00	1.007819e+00	1.011304e+00	1.014452e+00	1.017716e+00	1.021255e+00	1.024274e+00	1.025506e+00	9.993068e-01	9.993041e-01	9.993002e-01	9.993026e-01	9.993006e-01	9.992997e-01	9.992986e-01	9.992982e-01	9.992976e-01	9.992961e-01	9.992949e-01	9.992940e-01	9.992936e-01	9.992922e-01	9.992899e-01	9.992893e-01	9.992865e-01	9.992827e-01	9.992775e-01	9.992711e-01	9.992652e-01	9.992621e-01	9.992601e-01	9.992571e-01	9.992532e-01	9.992487e-01	9.992424e-01	9.992357e-01	9.992294e-01	9.992233e-01	9.992166e-01	9.992091e-01	9.992012e-01	9.991933e-01	9.991852e-01	9.991773e-01	9.991698e-01	9.991623e-01	9.991542e-01	9.991447e-01	9.991322e-01	9.991160e-01	9.990977e-01	9.990796e-01	9.990635e-01	9.990491e-01	9.990450e-01	9.990909e-01	9.993124e-01	1.000003e+00	1.001602e+00	1.004377e+00	1.007937e+00	1.011302e+00	1.013648e+00	1.014818e+00	1.015174e+00	1.015185e+00	1.015005e+00	1.014107e+00	1.011920e+00	1.008587e+00	1.004813e+00	1.001192e+00	9.980121e-01	9.953704e-01	9.932953e-01	9.917870e-01	9.908095e-01	9.902703e-01	9.900223e-01	9.899154e-01	9.898536e-01	9.899758e-01	9.905458e-01	9.915030e-01	9.924844e-01	9.932462e-01	9.937472e-01	9.940172e-01	9.940798e-01	9.939385e-01	9.935803e-01	9.929764e-01	9.921060e-01	9.910441e-01	9.900880e-01	9.896407e-01	9.898113e-01	9.905884e-01	9.922401e-01	9.951269e-01	9.991514e-01	1.003631e+00	1.007794e+00	1.011377e+00	1.014618e+00	1.017906e+00	1.021444e+00	1.024480e+00	1.025759e+00	9.993090e-01	9.993030e-01	9.992984e-01	9.993012e-01	9.992992e-01	9.992989e-01	9.992985e-01	9.992985e-01	9.992981e-01	9.992963e-01	9.992945e-01	9.992930e-01	9.992919e-01	9.992912e-01	9.992893e-01	9.992863e-01	9.992849e-01	9.992809e-01	9.992757