# vtk DataFile Version 3.0
vtk output
ASCII
DATASET STRUCTURED_GRID
DIMENSIONS 101 101 1
POINTS 10201 double
0.000000e+00	0.000000e+00	0.0	1.000000e-02	0.000000e+00	0.0	2.000000e-02	0.000000e+00	0.0	3.000000e-02	0.000000e+00	0.0	4.000000e-02	0.000000e+00	0.0	5.000000e-02	0.000000e+00	0.0	6.000000e-02	0.000000e+00	0.0	7.000000e-02	0.000000e+00	0.0	8.000000e-02	0.000000e+00	0.0	9.000000e-02	0.000000e+00	0.0	1.000000e-01	0.000000e+00	0.0	1.100000e-01	0.000000e+00	0.0	1.200000e-01	0.000000e+00	0.0	1.300000e-01	0.000000e+00	0.0	1.400000e-01	0.000000e+00	0.0	1.500000e-01	0.000000e+00	0.0	1.600000e-01	0.000000e+00	0.0	1.700000e-01	0.000000e+00	0.0	1.800000e-01	0.000000e+00	0.0	1.900000e-01	0.000000e+00	0.0	2.000000e-01	0.000000e+00	0.0	2.100000e-01	0.000000e+00	0.0	2.200000e-01	0.000000e+00	0.0	2.300000e-01	0.000000e+00	0.0	2.400000e-01	0.000000e+00	0.0	2.500000e-01	0.000000e+00	0.0	2.600000e-01	0.000000e+00	0.0	2.700000e-01	0.000000e+00	0.0	2.800000e-01	0.000000e+00	0.0	2.900000e-01	0.000000e+00	0.0	3.000000e-01	0.000000e+00	0.0	3.100000e-01	0.000000e+00	0.0	3.200000e-01	0.000000e+00	0.0	3.300000e-01	0.000000e+00	0.0	3.400000e-01	0.000000e+00	0.0	3.500000e-01	0.000000e+00	0.0	3.600000e-01	0.000000e+00	0.0	3.700000e-01	0.000000e+00	0.0	3.800000e-01	0.000000e+00	0.0	3.900000e-01	0.000000e+00	0.0	4.000000e-01	0.000000e+00	0.0	4.100000e-01	0.000000e+00	0.0	4.200000e-01	0.000000e+00	0.0	4.300000e-01	0.000000e+00	0.0	4.400000e-01	0.000000e+00	0.0	4.500000e-01	0.000000e+00	0.0	4.600000e-01	0.000000e+00	0.0	4.700000e-01	0.000000e+00	0.0	4.800000e-01	0.000000e+00	0.0	4.900000e-01	0.000000e+00	0.0	5.000000e-01	0.000000e+00	0.0	5.100000e-01	0.000000e+00	0.0	5.200000e-01	0.000000e+00	0.0	5.300000e-01	0.000000e+00	0.0	5.400000e-01	0.000000e+00	0.0	5.500000e-01	0.000000e+00	0.0	5.600000e-01	0.000000e+00	0.0	5.700000e-01	0.000000e+00	0.0	5.800000e-01	0.000000e+00	0.0	5.900000e-01	0.000000e+00	0.0	6.000000e-01	0.000000e+00	0.0	6.100000e-01	0.000000e+00	0.0	6.200000e-01	0.000000e+00	0.0	6.300000e-01	0.000000e+00	0.0	6.400000e-01	0.000000e+00	0.0	6.500000e-01	0.000000e+00	0.0	6.600000e-01	0.000000e+00	0.0	6.700000e-01	0.000000e+00	0.0	6.800000e-01	0.000000e+00	0.0	6.900000e-01	0.000000e+00	0.0	7.000000e-01	0.000000e+00	0.0	7.100000e-01	0.000000e+00	0.0	7.200000e-01	0.000000e+00	0.0	7.300000e-01	0.000000e+00	0.0	7.400000e-01	0.000000e+00	0.0	7.500000e-01	0.000000e+00	0.0	7.600000e-01	0.000000e+00	0.0	7.700000e-01	0.000000e+00	0.0	7.800000e-01	0.000000e+00	0.0	7.900000e-01	0.000000e+00	0.0	8.000000e-01	0.000000e+00	0.0	8.100000e-01	0.000000e+00	0.0	8.200000e-01	0.000000e+00	0.0	8.300000e-01	0.000000e+00	0.0	8.400000e-01	0.000000e+00	0.0	8.500000e-01	0.000000e+00	0.0	8.600000e-01	0.000000e+00	0.0	8.700000e-01	0.000000e+00	0.0	8.800000e-01	0.000000e+00	0.0	8.900000e-01	0.000000e+00	0.0	9.000000e-01	0.000000e+00	0.0	9.100000e-01	0.000000e+00	0.0	9.200000e-01	0.000000e+00	0.0	9.300000e-01	0.000000e+00	0.0	9.400000e-01	0.000000e+00	0.0	9.500000e-01	0.000000e+00	0.0	9.600000e-01	0.000000e+00	0.0	9.700000e-01	0.000000e+00	0.0	9.800000e-01	0.000000e+00	0.0	9.900000e-01	0.000000e+00	0.0	1.000000e+00	0.000000e+00	0.0	0.000000e+00	1.000000e-02	0.0	1.000000e-02	1.000000e-02	0.0	2.000000e-02	1.000000e-02	0.0	3.000000e-02	1.000000e-02	0.0	4.000000e-02	1.000000e-02	0.0	5.000000e-02	1.000000e-02	0.0	6.000000e-02	1.000000e-02	0.0	7.000000e-02	1.000000e-02	0.0	8.000000e-02	1.000000e-02	0.0	9.000000e-02	1.000000e-02	0.0	1.000000e-01	1.000000e-02	0.0	1.100000e-01	1.000000e-02	0.0	1.200000e-01	1.000000e-02	0.0	1.300000e-01	1.000000e-02	0.0	1.400000e-01	1.000000e-02	0.0	1.500000e-01	1.000000e-02	0.0	1.600000e-01	1.000000e-02	0.0	1.700000e-01	1.000000e-02	0.0	1.800000e-01	1.000000e-02	0.0	1.900000e-01	1.000000e-02	0.0	2.000000e-01	1.000000e-02	0.0	2.100000e-01	1.000000e-02	0.0	2.200000e-01	1.000000e-02	0.0	2.300000e-01	1.000000e-02	0.0	2.400000e-01	1.000000e-02	0.0	2.500000e-01	1.000000e-02	0.0	2.600000e-01	1.000000e-02	0.0	2.700000e-01	1.000000e-02	0.0	2.800000e-01	1.000000e-02	0.0	2.900000e-01	1.000000e-02	0.0	3.000000e-01	1.000000e-02	0.0	3.100000e-01	1.000000e-02	0.0	3.200000e-01	1.000000e-02	0.0	3.300000e-01	1.000000e-02	0.0	3.400000e-01	1.000000e-02	0.0	3.500000e-01	1.000000e-02	0.0	3.600000e-01	1.000000e-02	0.0	3.700000e-01	1.000000e-02	0.0	3.800000e-01	1.000000e-02	0.0	3.900000e-01	1.000000e-02	0.0	4.000000e-01	1.000000e-02	0.0	4.100000e-01	1.000000e-02	0.0	4.200000e-01	1.000000e-02	0.0	4.300000e-01	1.000000e-02	0.0	4.400000e-01	1.000000e-02	0.0	4.500000e-01	1.000000e-02	0.0	4.600000e-01	1.000000e-02	0.0	4.700000e-01	1.000000e-02	0.0	4.800000e-01	1.000000e-02	0.0	4.900000e-01	1.000000e-02	0.0	5.000000e-01	1.000000e-02	0.0	5.100000e-01	1.000000e-02	0.0	5.200000e-01	1.000000e-02	0.0	5.300000e-01	1.000000e-02	0.0	5.400000e-01	1.000000e-02	0.0	5.500000e-01	1.000000e-02	0.0	5.600000e-01	1.000000e-02	0.0	5.700000e-01	1.000000e-02	0.0	5.800000e-01	1.000000e-02	0.0	5.900000e-01	1.000000e-02	0.0	6.000000e-01	1.000000e-02	0.0	6.100000e-01	1.000000e-02	0.0	6.200000e-01	1.000000e-02	0.0	6.300000e-01	1.000000e-02	0.0	6.400000e-01	1.000000e-02	0.0	6.500000e-01	1.000000e-02	0.0	6.600000e-01	1.000000e-02	0.0	6.700000e-01	1.000000e-02	0.0	6.800000e-01	1.000000e-02	0.0	6.900000e-01	1.000000e-02	0.0	7.000000e-01	1.000000e-02	0.0	7.100000e-01	1.000000e-02	0.0	7.200000e-01	1.000000e-02	0.0	7.300000e-01	1.000000e-02	0.0	7.400000e-01	1.000000e-02	0.0	7.500000e-01	1.000000e-02	0.0	7.600000e-01	1.000000e-02	0.0	7.700000e-01	1.000000e-02	0.0	7.800000e-01	1.000000e-02	0.0	7.900000e-01	1.000000e-02	0.0	8.000000e-01	1.000000e-02	0.0	8.100000e-01	1.000000e-02	0.0	8.200000e-01	1.000000e-02	0.0	8.300000e-01	1.000000e-02	0.0	8.400000e-01	1.000000e-02	0.0	8.500000e-01	1.000000e-02	0.0	8.600000e-01	1.000000e-02	0.0	8.700000e-01	1.000000e-02	0.0	8.800000e-01	1.000000e-02	0.0	8.900000e-01	1.000000e-02	0.0	9.000000e-01	1.000000e-02	0.0	9.100000e-01	1.000000e-02	0.0	9.200000e-01	1.000000e-02	0.0	9.300000e-01	1.000000e-02	0.0	9.400000e-01	1.000000e-02	0.0	9.500000e-01	1.000000e-02	0.0	9.600000e-01	1.000000e-02	0.0	9.700000e-01	1.000000e-02	0.0	9.800000e-01	1.000000e-02	0.0	9.900000e-01	1.000000e-02	0.0	1.000000e+00	1.000000e-02	0.0	0.000000e+00	2.000000e-02	0.0	1.000000e-02	2.000000e-02	0.0	2.000000e-02	2.000000e-02	0.0	3.000000e-02	2.000000e-02	0.0	4.000000e-02	2.000000e-02	0.0	5.000000e-02	2.000000e-02	0.0	6.000000e-02	2.000000e-02	0.0	7.000000e-02	2.000000e-02	0.0	8.000000e-02	2.000000e-02	0.0	9.000000e-02	2.000000e-02	0.0	1.000000e-01	2.000000e-02	0.0	1.100000e-01	2.000000e-02	0.0	1.200000e-01	2.000000e-02	0.0	1.300000e-01	2.000000e-02	0.0	1.400000e-01	2.000000e-02	0.0	1.500000e-01	2.000000e-02	0.0	1.600000e-01	2.000000e-02	0.0	1.700000e-01	2.000000e-02	0.0	1.800000e-01	2.000000e-02	0.0	1.900000e-01	2.000000e-02	0.0	2.000000e-01	2.000000e-02	0.0	2.100000e-01	2.000000e-02	0.0	2.200000e-01	2.000000e-02	0.0	2.300000e-01	2.000000e-02	0.0	2.400000e-01	2.000000e-02	0.0	2.500000e-01	2.000000e-02	0.0	2.600000e-01	2.000000e-02	0.0	2.700000e-01	2.000000e-02	0.0	2.800000e-01	2.000000e-02	0.0	2.900000e-01	2.000000e-02	0.0	3.000000e-01	2.000000e-02	0.0	3.100000e-01	2.000000e-02	0.0	3.200000e-01	2.000000e-02	0.0	3.300000e-01	2.000000e-02	0.0	3.400000e-01	2.000000e-02	0.0	3.500000e-01	2.000000e-02	0.0	3.600000e-01	2.000000e-02	0.0	3.700000e-01	2.000000e-02	0.0	3.800000e-01	2.000000e-02	0.0	3.900000e-01	2.000000e-02	0.0	4.000000e-01	2.000000e-02	0.0	4.100000e-01	2.000000e-02	0.0	4.200000e-01	2.000000e-02	0.0	4.300000e-01	2.000000e-02	0.0	4.400000e-01	2.000000e-02	0.0	4.500000e-01	2.000000e-02	0.0	4.600000e-01	2.000000e-02	0.0	4.700000e-01	2.000000e-02	0.0	4.800000e-01	2.000000e-02	0.0	4.900000e-01	2.000000e-02	0.0	5.000000e-01	2.000000e-02	0.0	5.100000e-01	2.000000e-02	0.0	5.200000e-01	2.000000e-02	0.0	5.300000e-01	2.000000e-02	0.0	5.400000e-01	2.000000e-02	0.0	5.500000e-01	2.000000e-02	0.0	5.600000e-01	2.000000e-02	0.0	5.700000e-01	2.000000e-02	0.0	5.800000e-01	2.000000e-02	0.0	5.900000e-01	2.000000e-02	0.0	6.000000e-01	2.000000e-02	0.0	6.100000e-01	2.000000e-02	0.0	6.200000e-01	2.000000e-02	0.0	6.300000e-01	2.000000e-02	0.0	6.400000e-01	2.000000e-02	0.0	6.500000e-01	2.000000e-02	0.0	6.600000e-01	2.000000e-02	0.0	6.700000e-01	2.000000e-02	0.0	6.800000e-01	2.000000e-02	0.0	6.900000e-01	2.000000e-02	0.0	7.000000e-01	2.000000e-02	0.0	7.100000e-01	2.000000e-02	0.0	7.200000e-01	2.000000e-02	0.0	7.300000e-01	2.000000e-02	0.0	7.400000e-01	2.000000e-02	0.0	7.500000e-01	2.000000e-02	0.0	7.600000e-01	2.000000e-02	0.0	7.700000e-01	2.000000e-02	0.0	7.800000e-01	2.000000e-02	0.0	7.900000e-01	2.000000e-02	0.0	8.000000e-01	2.000000e-02	0.0	8.100000e-01	2.000000e-02	0.0	8.200000e-01	2.000000e-02	0.0	8.300000e-01	2.000000e-02	0.0	8.400000e-01	2.000000e-02	0.0	8.500000e-01	2.000000e-02	0.0	8.600000e-01	2.000000e-02	0.0	8.700000e-01	2.000000e-02	0.0	8.800000e-01	2.000000e-02	0.0	8.900000e-01	2.000000e-02	0.0	9.000000e-01	2.000000e-02	0.0	9.100000e-01	2.000000e-02	0.0	9.200000e-01	2.000000e-02	0.0	9.300000e-01	2.000000e-02	0.0	9.400000e-01	2.000000e-02	0.0	9.500000e-01	2.000000e-02	0.0	9.600000e-01	2.000000e-02	0.0	9.700000e-01	2.000000e-02	0.0	9.800000e-01	2.000000e-02	0.0	9.900000e-01	2.000000e-02	0.0	1.000000e+00	2.000000e-02	0.0	0.000000e+00	3.000000e-02	0.0	1.000000e-02	3.000000e-02	0.0	2.000000e-02	3.000000e-02	0.0	3.000000e-02	3.000000e-02	0.0	4.000000e-02	3.000000e-02	0.0	5.000000e-02	3.000000e-02	0.0	6.000000e-02	3.000000e-02	0.0	7.000000e-02	3.000000e-02	0.0	8.000000e-02	3.000000e-02	0.0	9.000000e-02	3.000000e-02	0.0	1.000000e-01	3.000000e-02	0.0	1.100000e-01	3.000000e-02	0.0	1.200000e-01	3.000000e-02	0.0	1.300000e-01	3.000000e-02	0.0	1.400000e-01	3.000000e-02	0.0	1.500000e-01	3.000000e-02	0.0	1.600000e-01	3.000000e-02	0.0	1.700000e-01	3.000000e-02	0.0	1.800000e-01	3.000000e-02	0.0	1.900000e-01	3.000000e-02	0.0	2.000000e-01	3.000000e-02	0.0	2.100000e-01	3.000000e-02	0.0	2.200000e-01	3.000000e-02	0.0	2.300000e-01	3.000000e-02	0.0	2.400000e-01	3.000000e-02	0.0	2.500000e-01	3.000000e-02	0.0	2.600000e-01	3.000000
[...]
POINT_DATA 10201

SCALARS Height double 1
LOOKUP_TABLE default
9.990998e-01	9.991009e-01	9.990968e-01	9.990971e-01	9.990990e-01	9.991015e-01	9.991060e-01	9.991086e-01	9.991116e-01	9.991133e-01	9.991098e-01	9.991019e-01	9.990912e-01	9.990806e-01	9.990734e-01	9.990714e-01	9.990736e-01	9.990756e-01	9.990725e-01	9.990642e-01	9.990567e-01	9.990516e-01	9.990448e-01	9.990370e-01	9.990205e-01	9.990055e-01	9.989955e-01	9.989890e-01	9.989833e-01	9.989760e-01	9.989660e-01	9.989532e-01	9.989385e-01	9.989225e-01	9.989048e-01	9.988857e-01	9.988669e-01	9.988484e-01	9.988299e-01	9.988108e-01	9.987907e-01	9.987695e-01	9.987470e-01	9.987231e-01	9.986974e-01	9.986698e-01	9.986400e-01	9.986079e-01	9.985734e-01	9.985362e-01	9.984960e-01	9.984525e-01	9.984055e-01	9.983551e-01	9.983007e-01	9.982414e-01	9.981757e-01	9.981045e-01	9.980322e-01	9.979597e-01	9.979046e-01	9.979092e-01	9.980957e-01	9.988158e-01	1.000804e+00	1.004803e+00	1.010139e+00	1.014812e+00	1.017197e+00	1.017557e+00	1.016951e+00	1.015154e+00	1.011887e+00	1.007123e+00	1.001356e+00	9.953698e-01	9.899055e-01	9.853850e-01	9.820113e-01	9.799127e-01	9.792382e-01	9.801305e-01	9.823985e-01	9.859179e-01	9.905500e-01	9.960700e-01	1.002004e+00	1.007582e+00	1.012072e+00	1.015066e+00	1.016653e+00	1.017150e+00	1.016609e+00	1.013958e+00	1.009041e+00	1.003579e+00	9.995546e-01	9.975491e-01	9.967818e-01	9.965420e-01	9.964648e-01	9.991336e-01	9.991465e-01	9.991435e-01	9.991391e-01	9.991370e-01	9.991350e-01	9.991318e-01	9.991272e-01	9.991222e-01	9.991181e-01	9.991139e-01	9.991080e-01	9.990999e-01	9.990910e-01	9.990831e-01	9.990780e-01	9.990741e-01	9.990780e-01	9.990801e-01	9.990818e-01	9.990794e-01	9.990675e-01	9.990510e-01	9.990370e-01	9.990236e-01	9.990188e-01	9.990124e-01	9.990065e-01	9.989993e-01	9.989896e-01	9.989766e-01	9.989606e-01	9.989427e-01	9.989245e-01	9.989079e-01	9.988929e-01	9.988785e-01	9.988640e-01	9.988488e-01	9.988323e-01	9.988140e-01	9.987940e-01	9.987722e-01	9.987486e-01	9.987231e-01	9.986956e-01	9.986657e-01	9.986333e-01	9.985985e-01	9.985609e-01	9.985202e-01	9.984761e-01	9.984284e-01	9.983770e-01	9.983218e-01	9.982614e-01	9.981940e-01	9.981207e-01	9.980462e-01	9.979699e-01	9.978917e-01	9.978479e-01	9.979608e-01	9.986090e-01	1.000678e+00	1.005024e+00	1.010778e+00	1.015377e+00	1.017487e+00	1.017708e+00	1.017145e+00	1.015575e+00	1.012204e+00	1.007241e+00	1.001355e+00	9.953267e-01	9.898276e-01	9.853273e-01	9.820605e-01	9.800024e-01	9.793538e-01	9.802122e-01	9.824324e-01	9.858470e-01	9.904760e-01	9.960340e-01	1.002013e+00	1.007727e+00	1.012407e+00	1.015465e+00	1.016817e+00	1.017301e+00	1.016928e+00	1.014556e+00	1.009680e+00	1.003781e+00	9.994169e-01	9.973396e-01	9.966454e-01	9.964815e-01	9.964212e-01	9.991333e-01	9.991338e-01	9.991344e-01	9.991310e-01	9.991296e-01	9.991284e-01	9.991271e-01	9.991241e-01	9.991219e-01	9.991206e-01	9.991179e-01	9.991129e-01	9.991052e-01	9.990959e-01	9.990873e-01	9.990803e-01	9.990760e-01	9.990764e-01	9.990741e-01	9.990709e-01	9.990663e-01	9.990571e-01	9.990472e-01	9.990368e-01	9.990267e-01	9.990202e-01	9.990169e-01	9.990122e-01	9.990057e-01	9.989961e-01	9.989827e-01	9.989659e-01	9.989471e-01	9.989278e-01	9.989087e-01	9.988914e-01	9.988756e-01	9.988603e-01	9.988446e-01	9.988278e-01	9.988094e-01	9.987892e-01	9.987671e-01	9.987433e-01	9.987177e-01	9.986904e-01	9.986610e-01	9.986288e-01	9.985940e-01	9.985564e-01	9.985156e-01	9.984717e-01	9.984244e-01	9.983735e-01	9.983185e-01	9.982579e-01	9.981897e-01	9.981156e-01	9.980409e-01	9.979641e-01	9.978852e-01	9.978324e-01	9.979204e-01	9.985627e-01	1.000732e+00	1.005228e+00	1.010890e+00	1.015223e+00	1.017200e+00	1.017456e+00	1.016937e+00	1.015483e+00	1.012114e+00	1.007120e+00	1.001304e+00	9.953613e-01	9.899179e-01	9.855165e-01	9.823331e-01	9.803190e-01	9.796921e-01	9.805172e-01	9.826962e-01	9.860177e-01	9.905602e-01	9.960639e-01	1.001955e+00	1.007602e+00	1.012324e+00	1.015360e+00	1.016600e+00	1.017039e+00	1.016639e+00	1.014409e+00	1.009802e+00	1.003989e+00	9.994708e-01	9.972899e-01	9.965967e-01	9.964564e-01	9.964010e-01	9.991307e-01	9.991307e-01	9.991330e-01	9.991296e-01	9.991285e-01	9.991274e-01	9.991255e-01	9.991226e-01	9.991197e-01	9.991175e-01	9.991149e-01	9.991109e-01	9.991045e-01	9.990965e-01	9.990885e-01	9.990819e-01	9.990767e-01	9.990785e-01	9.990763e-01	9.990741e-01	9.990700e-01	9.990603e-01	9.990498e-01	9.990367e-01	9.990277e-01	9.990217e-01	9.990166e-01	9.990113e-01	9.990044e-01	9.989945e-01	9.989812e-01	9.989648e-01	9.989462e-01	9.989265e-01	9.989074e-01	9.988899e-01	9.988742e-01	9.988589e-01	9.988435e-01	9.988269e-01	9.988085e-01	9.987880e-01	9.987655e-01	9.987412e-01	9.987153e-01	9.986878e-01	9.986583e-01	9.986262e-01	9.985913e-01	9.985535e-01	9.985125e-01	9.984684e-01	9.984212e-01	9.983705e-01	9.983155e-01	9.982546e-01	9.981856e-01	9.981101e-01	9.980344e-01	9.979573e-01	9.978774e-01	9.978181e-01	9.978880e-01	9.985065e-01	1.000702e+00	1.005279e+00	1.010905e+00	1.015130e+00	1.017019e+00	1.017253e+00	1.016746e+00	1.015403e+00	1.012164e+00	1.007124e+00	1.001274e+00	9.953710e-01	9.899970e-01	9.856969e-01	9.825417e-01	9.805460e-01	9.799223e-01	9.807350e-01	9.828992e-01	9.861828e-01	9.906292e-01	9.960735e-01	1.001929e+00	1.007614e+00	1.012366e+00	1.015261e+00	1.016398e+00	1.016830e+00	1.016454e+00	1.014319e+00	1.009823e+00	1.004046e+00	9.994489e-01	9.972387e-01	9.965611e-01	9.964315e-01	9.963797e-01	9.991302e-01	9.991296e-01	9.991318e-01	9.991291e-01	9.991277e-01	9.991261e-01	9.991241e-01	9.991204e-01	9.991176e-01	9.991151e-01	9.991123e-01	9.991085e-01	9.991028e-01	9.990954e-01	9.990876e-01	9.990808e-01	9.990753e-01	9.990767e-01	9.990744e-01	9.990720e-01	9.990678e-01	9.990581e-01	9.990478e-01	9.990347e-01	9.990252e-01	9.990189e-01	9.990138e-01	9.990083e-01	9.990012e-01	9.989914e-01	9.989783e-01	9.989622e-01	9.989435e-01	9.989240e-01	9.989049e-01	9.988873e-01	9.988712e-01	9.988562e-01	9.988411e-01	9.988248e-01	9.988067e-01	9.987863e-01	9.987638e-01	9.987393e-01	9.987132e-01	9.986855e-01	9.986559e-01	9.986238e-01	9.985889e-01	9.985510e-01	9.985099e-01	9.984658e-01	9.984187e-01	9.983680e-01	9.983128e-01	9.982517e-01	9.981820e-01	9.981054e-01	9.980286e-01	9.979504e-01	9.978707e-01	9.978110e-01	9.978765e-01	9.984888e-01	1.000685e+00	1.005266e+00	1.010844e+00	1.014960e+00	1.016777e+00	1.016989e+00	1.016479e+00	1.015239e+00	1.012167e+00	1.007167e+00	1.001278e+00	9.954064e-01	9.901495e-01	9.859618e-01	9.828236e-01	9.808212e-01	9.801893e-01	9.810060e-01	9.831718e-01	9.864329e-01	9.907607e-01	9.961013e-01	1.001941e+00	1.007662e+00	1.012347e+00	1.015075e+00	1.016128e+00	1.016562e+00	1.016207e+00	1.014146e+00	1.009758e+00	1.004039e+00	9.994499e-01	9.972306e-01	9.965447e-01	9.964098e-01	9.963585e-01	9.991290e-01	9.991295e-01	9.991303e-01	9.991279e-01	9.991260e-01	9.991241e-01	9.991219e-01	9.991182e-01	9.991152e-01	9.991124e-01	9.991095e-01	9.991056e-01	9.991002e-01	9.990933e-01	9.990860e-01	9.990794e-01	9.990742e-01	9.990751e-01	9.990725e-01	9.990700e-01	9.990657e-01	9.990562e-01	9.990461e-01	9.990333e-01	9.990229e-01	9.990169e-01	9.990115e-01	9.990059e-01	9.989987e-01	9.989891e-01	9.989763e-01	9.989603e-01	9.989418e-01	9.989222e-01	9.989030e-01	9.988854e-01	9.988692e-01	9.988539e-01	9.988386e-01	9.988223e-01	9.988043e-01	9.987840e-01	9.987615e-01	9.987368e-01	9.987104e-01	9.986823e-01	9.986521e-01	9.986197e-01	9.985846e-01	9.985466e-01	9.985056e-01	9.984615e-01	9.984141e-01	9.983632e-01	9.983077e-01	9.982461e-01	9.981759e-01	9.980986e-01	9.980210e-01	9.979423e-01	9.978618e-01	9.978028e-01	9.978730e-01	9.984956e-01	1.000691e+00	1.005217e+00	1.010698e+00	1.014721e+00	1.016491e+00	1.016684e+00	1.016167e+00	1.015002e+00	1.012114e+00	1.007237e+00	1.001336e+00	9.954938e-01	9.903803e-01	9.863056e-01	9.831786e-01	9.811554e-01	9.805108e-01	9.813412e-01	9.835219e-01	9.867618e-01	9.909613e-01	9.961719e-01	1.002002e+00	1.007731e+00	1.012272e+00	1.014813e+00	1.015814e+00	1.016256e+00	1.015916e+00	1.013900e+00	1.009608e+00	1.003999e+00	9.994780e-01	9.972507e-01	9.965386e-01	9.963888e-01	9.963354e-01	9.991273e-01	9.991277e-01	9.991280e-01	9.991259e-01	9.991235e-01	9.991216e-01	9.991195e-01	9.991164e-01	9.991134e-01	9.991108e-01	9.991077e-01	9.991038e-01	9.990984e-01	9.990917e-01	9.990846e-01	9.990785e-01	9.990732e-01	9.990725e-01	9.990701e-01	9.990671e-01	9.990624e-01	9.990529e-01	9.990425e-01	9.990307e-01	9.990202e-01	9.990144e-01	9.990088e-01	9.990031e-01	9.989961e-01	9.989866e-01	9.989740e-01	9.989577e-01	9.989393e-01	9.989199e-01	9.989009e-01	9.988831e-01	9.988665e-01	9.988509e-01	9.988353e-01	9.988190e-01	9.988011e-01	9.987811e-01	9.987589e-01	9.987344e-01	9.987079e-01	9.986793e-01	9.986486e-01	9.986157e-01	9.985804e-01	9.985423e-01	9.985012e-01	9.984571e-01	9.984095e-01	9.983580e-01	9.983019e-01	9.982394e-01	9.981683e-01	9.980904e-01	9.980125e-01	9.979333e-01	9.978513e-01	9.977939e-01	9.978761e-01	9.985226e-01	1.000716e+00	1.005144e+00	1.010478e+00	1.014416e+00	1.016157e+00	1.016339e+00	1.015813e+00	1.014697e+00	1.011998e+00	1.007293e+00	1.001444e+00	9.956613e-01	9.906978e-01	9.867295e-01	9.836210e-01	9.815830e-01	9.809285e-01	9.817713e-01	9.839604e-01	9.871691e-01	9.912461e-01	9.963159e-01	1.002106e+00	1.007775e+00	1.012134e+00	1.014493e+00	1.015460e+00	1.015911e+00	1.015576e+00	1.013585e+00	1.009384e+00	1.003939e+00	9.995266e-01	9.972937e-01	9.965407e-01	9.963679e-01	9.963096e-01	9.991209e-01	9.991248e-01	9.991233e-01	9.991222e-01	9.991194e-01	9.991174e-01	9.991158e-01	9.991139e-01	9.991114e-01	9.991095e-01	9.991070e-01	9.991030e-01	9.990977e-01	9.990911e-01	9.990844e-01	9.990785e-01	9.990744e-01	9.990713e-01	9.990697e-01	9.990649e-01	9.990594e-01	9.990498e-01	9.990389e-01	9.990283e-01	9.990191e-01	9.990125e-01	9.990068e-01	9.990009e-01	9.989939e-01	9.989843e-01	9.989707e-01	9.989541e-01	9.989354e-01	9.989162e-01	9.988974e-01	9.988797e-01	9.988630e-01	9.988469e-01	9.988309e-01	9.988144e-01	9.987965e-01	9.987767e-01	9.987547e-01	9.987304e-01	9.987039e-01	9.986751e-01	9.986441e-01	9.986108e-01	9.985752e-01	9.985371e-01	9.984962e-01	9.984521e-01	9.984045e-01	9.983527e-01	9.982959e-01	9.982326e-01	9.981605e-01	9.980824e-01	9.980040e-01	9.979229e-01	9.978409e-01	9.977879e-01	9.978870e-01	9.985668e-01	1.000755e+00	1.005048e+00	1.010196e+00	1.014043e+00	1.015769e+00	1.015952e+00	1.015418e+00	1.014336e+00	1.011809e+00	1.007310e+00	1.001598e+00	9.959272e-01	9.910962e-01	9.872193e-01	9.841397e-01	9.821013e-01	9.814413e-01	9.822896e-01	9.844736e-01	9.876431e-01	9.916137e-01	9.965530e-01	1.002240e+00	1.007768e+00	1.011916e+00	1.014124e+00	1.015064e+00	1.015524e+00	1.015181e+00	1.013198e+00	1.009099e+00	1.003859e+00	9.995914e-01	9.973552e-01	9.965501e-01	9.963469e-01	9.962810e-01	9.991150e-01	9.991235e-01	9.991191e-01	9.991184e-01	9.991158e-01	9.991134e-01	9.991122e-01	9.991111e-01	9.991093e-01	9.991076e-01	9.991055e-01	9.991021e-01	9.990963e-01	9.990897e-01	9.990833e-01	9.990779e-01	9.990740e-01	9.990705e-01	9.990670e-01	9.990632e-01	9.990566e-01	9.990464e-01	9.990367e-01	9.990254e-01	9.990185e-01	9.990114e-01	9.990056e-01	9.989995e-01	9.989920e-01	9.989814e-01	9.989672e-01	9.989500e-01	9.989314e-01	9.989124e-01	9.988935e-01	9.988759e-01	9.988591e-01	9.988428e-01	9.988266e-01	9.988097e-01	9.987916e-01	9.987717e-01	9.987497e-01	9.987255e-01	9.986988e-01	9.986698e-01	9.986384e-01	9.986047e-01	9.985687e-01	9.985304e-01	9.984893e-01	9.984452e-01	9.983974e-01	9.983453e-01	9.982882e-01	9.982242e-01	9.981513e-01	9.980732e-01	9.979938e-01	9.979107e-01	9.978307e-01	9.977859e-01	9.979072e-01	9.986278e-01	1.000806e+00	1.004934e+00	1.009860e+00	1.013600e+00	1.015322e+00	1.015516e+00	1.014974e+00	1.013918e+00	1.011538e+00	1.007278e+00	1.001781e+00	9.962825e-01	9.915817e-01	9.877754e-01	9.847291e-01	9.827017e-01	9.820396e-01	9.828874e-01	9.850551e-01	9.881856e-01	9.920725e-01	9.968756e-01	1.002389e+00	1.007705e+00	1.011622e+00	1.013698e+00	1.014622e+00	1.015087e+00	1.014725e+00	1.012743e+00	1.008763e+00	1.003762e+00	9.996637e-01	9.974314e-01	9.965673e-01	9.963276e-01	9.962505e-01	9.991118e-01	9.991207e-01	9.991155e-01	9.991153e-01	9.991125e-01	9.991097e-01	9.991086e-01	9.991088e-01	9.991074e-01	9.991056e-01	9.991030e-01	9.990993e-01	9.990940e-01	9.990871e-01	9.990807e-01	9.990757e-01	9.990720e-01	9.990689e-01	9.990647e-01	9.990593e-01	9.990528e-01	9.990433e-01	9.990331e-01	9.990262e-01	9.990173e-01	9.990111e-01	9.990050e-01	9.989985e-01	9.989901e-01	9.989784e-01	9.989635e-01	9.989461e-01	9.989273e-01	9.989081e-01	9.988894e-01	9.988716e-01	9.988548e-01	9.988384e-01	9.988220e-01	9.988049e-01	9.987865e-01	9.987664e-01	9.987443e-01	9.987200e-01	9.986932e-01	9.986641e-01	9.986325e-01	9.985985e-01	9.985621e-01	9.985232e-01	9.984815e-01	9.984368e-01	9.983886e-01	9.983361e-01	9.982783e-01	9.982133e-01	9.981397e-01	9.980615e-01	9.979809e-01	9.978966e-01	9.978191e-01	9.977855e-01	9.979364e-01	9.987024e-01	1.000863e+00	1.004803e+00	1.009480e+00	1.013095e+00	1.014812e+00	1.015025e+00	1.014473e+00	1.013436e+00	1.011197e+00	1.007203e+00	1.001988e+00	9.967204e-01	9.921564e-01	9.884014e-01	9.853906e-01	9.833855e-01	9.827268e-01	9.835655e-01	9.857057e-01	9.888011e-01	9.926250e-01	9.972771e-01	1.002552e+00	1.007587e+00	1.011253e+00	1.013205e+00	1.014127e+00	1.014598e+00	1.014207e+00	1.012227e+00	1.008384e+00	1.003649e+00	9.997411e-01	9.975197e-01	9.965927e-01	9.963111e-01	9.962193e-01	9.991078e-01	9.991176e-01	9.991115e-01	9.991119e-01	9.991089e-01	9.991062e-01	9.991050e-01	9.991060e-01	9.991057e-01	9.991033e-01	9.991002e-01	9.990960e-01	9.990900e-01	9.990836e-01	9.990775e-01	9.990727e-01	9.990688e-01	9.990655e-01	9.990609e-01	9.990544e-01	9.990471e-01	9.990392e-01	9.990320e-01	9.990230e-01	9.990162e-01	9.990101e-01	9.990038e-01	9.989964e-01	9.989870e-01	9.989746e-01	9.989595e-01	9.989418e-01	9.989230e-01	9.989042e-01	9.988854e-01	9.988675e-01	9.988503e-01	9.988336e-01	9.988169e-01	9.987995e-01	9.987808e-01	9.987605e-01	9.987381e-01	9.987136e-01	9.986867e-01	9.986576e-01	9.986260e-01	9.985920e-01	9.985553e-01	9.985159e-01	9.984735e-01	9.984280e-01	9.983790e-01	9.983258e-01	9.982671e-01	9.982008e-01	9.981261e-01	9.980472e-01	9.979658e-01	9.978806e-01	9.978057e-01	9.977855e-01	9.979726e-01	9.987898e-01	1.000923e+00	1.004659e+00	1.009063e+00	1.012536e+00	1.014245e+00	1.014479e+00	1.013914e+00	1.012882e+00	1.010782e+00	1.007083e+00	1.002223e+00	9.972324e-01	9.928119e-01	9.890982e-01	9.861290e-01	9.841624e-01	9.835170e-01	9.843319e-01	9.864301e-01	9.894883e-01	9.932613e-01	9.977486e-01	1.002732e+00	1.007413e+00	1.010803e+00	1.012642e+00	1.013573e+00	1.014053e+00	1.013632e+00	1.011659e+00	1.007972e+00	1.003524e+00	9.998208e-01	9.976178e-01	9.966251e-01	9.962970e-01	9.961872e-01	9.991037e-01	9.991140e-01	9.991068e-01	9.991080e-01	9.991051e-01	9.991025e-01	9.991016e-01	9.991026e-01	9.991034e-01	9.991007e-01	9.990969e-01	9.990919e-01	9.990860e-01	9.990798e-01	9.990747e-01	9.990704e-01	9.990668e-01	9.990632e-01	9.990579e-01	9.990517e-01	9.990444e-01	9.990366e-01	9.990291e-01	9.990218e-01	9.990152e-01	9.990089e-01	9.990016e-01	9.989935e-01	9.989827e-01	9.989692e-01	9.989537e-01	9.989364e-01	9.989182e-01	9.989001e-01	9.988814e-01	9.988633e-01	9.988456e-01	9.988284e-01	9.988112e-01	9.987935e-01	9.987746e-01	9.987539e-01	9.987312e-01	9.987063e-01	9.986792e-01	9.986499e-01	9.986183e-01	9.985842e-01	9.985473e-01	9.985075e-01	9.984646e-01	9.984185e-01	9.983688e-01	9.983148e-01	9.982551e-01	9.981873e-01	9.981110e-01	9.980312e-01	9.979488e-01	9.978631e-01	9.977913e-01	9.977862e-01	9.980145e-01	9.988862e-01	1.000988e+00	1.004504e+00	1.008615e+00	1.011927e+00	1.013622e+00	1.013879e+00	1.013294e+00	1.012249e+00	1.010288e+00	1.006929e+00	1.002488e+00	9.978089e-01	9.935324e-01	9.898647e-01	9.869486e-01	9.850438e-01	9.844232e-01	9.851980e-01	9.872326e-01	9.902416e-01	9.939668e-01	9.982827e-01	1.002928e+00	1.007190e+00	1.010269e+00	1.012004e+00	1.012963e+00	1.013449e+00	1.013002e+00	1.011046e+00	1.007535e+00	1.003389e+00	9.999009e-01	9.977227e-01	9.966633e-01	9.962845e-01	9.961535e-01	9.990992e-01	9.991095e-01	9.991016e-01	9.991036e-01	9.991007e-01	9.990985e-01	9.990979e-01	9.990989e-01	9.990994e-01	9.990972e-01	9.990925e-01	9.990873e-01	9.990812e-01	9.990757e-01	9.990714e-01	9.990679e-01	9.990640e-01	9.990597e-01	9.990540e-01	9.990474e-01	9.990400e-01	9.990331e-01	9.990264e-01	9.990199e-01	9.990136e-01	9.990068e-01	9.989993e-01	9.989888e-01	9.989765e-01	9.989623e-01	9.989465e-01	9.989297e-01	9.989124e-01	9.988947e-01	9.988768e-01	9.988587e-01	9.988407e-01	9.988229e-01	9.988053e-01	9.987872e-01	9.987681e-01	9.987473e-01	9.987243e-01	9.986991e-01	9.986715e-01	9.986417e-01	9.986097e-01	9.985752e-01	9.985379e-01	9.984976e-01	9.984542e-01	9.984077e-01	9.983574e-01	9.983026e-01	9.982418e-01	9.981724e-01	9.980945e-01	9.980135e-01	9.979298e-01	9.978443e-01	9.977766e-01	9.977882e-01	9.980609e-01	9.989887e-01	1.001055e+00	1.004345e+00	1.008146e+00	1.011275e+00	1.012945e+00	1.013218e+00	1.012609e+00	1.011533e+00	1.009708e+00	1.006742e+00	1.002786e+00	9.984371e-01	9.943034e-01	9.906968e-01	9.878564e-01	9.860373e-01	9.854508e-01	9.861744e-01	9.881189e-01	9.910572e-01	9.947228e-01	9.988703e-01	1.003145e+00	1.006916e+00	1.009644e+00	1.011287e+00	1.012287e+00	1.012786e+00	1.012318e+00	1.010393e+00	1.007083e+00	1.003251e+00	9.999807e-01	9.978311e-01	9.967045e-01	9.962714e-01	9.961170e-01	9.990944e-01	9.991046e-01	9.990961e-01	9.990991e-01	9.990965e-01	9.990947e-01	9.990939e-01	9.990946e-01	9.990942e-01	9.990922e-01	9.990868e-01	9.990819e-01	9.990765e-01	9.990717e-01	9.990680e-01	9.990650e-01	9.990612e-01	9.990564e-01	9.990500e-01	9.990428e-01	9.990354e-01	9.990298e-01	9.990243e-01	9.990186e-01	9.990120e-01	9.990049e-01	9.989944e-01	9.989827e-01	9.989694e-01	9.989540e-01	9.989385e-01	9.989217e-01	9.989050e-01	9.988883e-01	9.988709e-01	9.988530e-01	9.988349e-01	9.988168e-01	9.987989e-01	9.987806e-01	9.987615e-01	9.987407e-01	9.987176e-01	9.986921e-01	9.986642e-01	9.986339e-01	9.986012e-01	9.985658e-01	9.985277e-01	9.984866e-01	9.984425e-01	9.983953e-01	9.983445e-01	9.982889e-01	9.982269e-01	9.981558e-01	9.980762e-01	9.979939e-01	9.979092e-01	9.978238e-01	9.977606e-01	9.977903e-01	9.981094e-01	9.990935e-01	1.001122e+00	1.004185e+00	1.007668e+00	1.010588e+00	1.012212e+00	1.012491e+00	1.011853e+00	1.010732e+00	1.009045e+00	1.006531e+00	1.003111e+00	9.990989e-01	9.951122e-01	9.915942e-01	9.888630e-01	9.871468e-01	9.865983e-01	9.872687e-01	9.891012e-01	9.919319e-01	9.955127e-01	9.994930e-01	1.003384e+00	1.006603e+00	1.008935e+00	1.010488e+00	1.011539e+00	1.012060e+00	1.011579e+00	1.009708e+00	1.006625e+00	1.003114e+00	1.000059e+00	9.979395e-01	9.967458e-01	9.962553e-01	9.960758e-01	9.990893e-01	9.990996e-01	9.990910e-01	9.990950e-01	9.990924e-01	9.990908e-01	9.990896e-01	9.990894e-01	9.990884e-01	9.990853e-01	9.990807e-01	9.990759e-01	9.990719e-01	9.990681e-01	9.990646e-01	9.990615e-01	9.990580e-01	9.990525e-01	9.990457e-01	9.990381e-01	9.990307e-01	9.990260e-01	9.990216e-01	9.990161e-01	9.990100e-01	9.990001e-01	9.989889e-01	9.989756e-01	9.989619e-01	9.989459e-01	9.989298e-01	9.989137e-01	9.988975e-01	9.988812e-01	9.988641e-01	9.988464e-01	9.988282e-01	9.988100e-01	9.987918e-01	9.987734e-01	9.987543e-01	9.987335e-01	9.987106e-01	9.986851e-01	9.986569e-01	9.986261e-01	9.985926e-01	9.985563e-01	9.985170e-01	9.984749e-01	9.984299e-01	9.983818e-01	9.983300e-01	9.982736e-01	9.982104e-01	9.981377e-01	9.980562e-01	9.979726e-01	9.978874e-01	9.978013e-01	9.977421e-01	9.977905e-01	9.981572e-01	9.991967e-01	1.001186e+00	1.004029e+00	1.007192e+00	1.009877e+00	1.011427e+00	1.011695e+00	1.011016e+00	1.009848e+00	1.008324e+00	1.006315e+00	1.003445e+00	9.997680e-01	9.959466e-01	9.925663e-01	9.899815e-01	9.883756e-01	9.878633e-01	9.884844e-01	9.901925e-01	9.928719e-01	9.963196e-01	1.000120e+00	1.003634e+00	1.006280e+00	1.008158e+00	1.009606e+00	1.010714e+00	1.011267e+00	1.010789e+00	1.009003e+00	1.006170e+00	1.002981e+00	1.000133e+00	9.980446e-01	9.967842e-01	9.962338e-01	9.960279e-01	9.990855e-01	9.990947e-01	9.990860e-01	9.990902e-01	9.990885e-01	9.990871e-01	9.990852e-01	9.990837e-01	9.990817e-01	9.990781e-01	9.990736e-01	9.990702e-01	9.990673e-01	9.990647e-01	9.990614e-01	9.990564e-01	9.990533e-01	9.990480e-01	9.990407