# vtk DataFile Version 3.0
vtk output
ASCII
DATASET STRUCTURED_GRID
DIMENSIONS 101 101 1
POINTS 10201 double
0.000000e+00	0.000000e+00	0.0	1.000000e-02	0.000000e+00	0.0	2.000000e-02	0.000000e+00	0.0	3.000000e-02	0.000000e+00	0.0	4.000000e-02	0.000000e+00	0.0	5.000000e-02	0.000000e+00	0.0	6.000000e-02	0.000000e+00	0.0	7.000000e-02	0.000000e+00	0.0	8.000000e-02	0.000000e+00	0.0	9.000000e-02	0.000000e+00	0.0	1.000000e-01	0.000000e+00	0.0	1.100000e-01	0.000000e+00	0.0	1.200000e-01	0.000000e+00	0.0	1.300000e-01	0.000000e+00	0.0	1.400000e-01	0.000000e+00	0.0	1.500000e-01	0.000000e+00	0.0	1.600000e-01	0.000000e+00	0.0	1.700000e-01	0.000000e+00	0.0	1.800000e-01	0.000000e+00	0.0	1.900000e-01	0.000000e+00	0.0	2.000000e-01	0.000000e+00	0.0	2.100000e-01	0.000000e+00	0.0	2.200000e-01	0.000000e+00	0.0	2.300000e-01	0.000000e+00	0.0	2.400000e-01	0.000000e+00	0.0	2.500000e-01	0.000000e+00	0.0	2.600000e-01	0.000000e+00	0.0	2.700000e-01	0.000000e+00	0.0	2.800000e-01	0.000000e+00	0.0	2.900000e-01	0.000000e+00	0.0	3.000000e-01	0.000000e+00	0.0	3.100000e-01	0.000000e+00	0.0	3.200000e-01	0.000000e+00	0.0	3.300000e-01	0.000000e+00	0.0	3.400000e-01	0.000000e+00	0.0	3.500000e-01	0.000000e+00	0.0	3.600000e-01	0.000000e+00	0.0	3.700000e-01	0.000000e+00	0.0	3.800000e-01	0.000000e+00	0.0	3.900000e-01	0.000000e+00	0.0	4.000000e-01	0.000000e+00	0.0	4.100000e-01	0.000000e+00	0.0	4.200000e-01	0.000000e+00	0.0	4.300000e-01	0.000000e+00	0.0	4.400000e-01	0.000000e+00	0.0	4.500000e-01	0.000000e+00	0.0	4.600000e-01	0.000000e+00	0.0	4.700000e-01	0.000000e+00	0.0	4.800000e-01	0.000000e+00	0.0	4.900000e-01	0.000000e+00	0.0	5.000000e-01	0.000000e+00	0.0	5.100000e-01	0.000000e+00	0.0	5.200000e-01	0.000000e+00	0.0	5.300000e-01	0.000000e+00	0.0	5.400000e-01	0.000000e+00	0.0	5.500000e-01	0.000000e+00	0.0	5.600000e-01	0.000000e+00	0.0	5.700000e-01	0.000000e+00	0.0	5.800000e-01	0.000000e+00	0.0	5.900000e-01	0.000000e+00	0.0	6.000000e-01	0.000000e+00	0.0	6.100000e-01	0.000000e+00	0.0	6.200000e-01	0.000000e+00	0.0	6.300000e-01	0.000000e+00	0.0	6.400000e-01	0.000000e+00	0.0	6.500000e-01	0.000000e+00	0.0	6.600000e-01	0.000000e+00	0.0	6.700000e-01	0.000000e+00	0.0	6.800000e-01	0.000000e+00	0.0	6.900000e-01	0.000000e+00	0.0	7.000000e-01	0.000000e+00	0.0	7.100000e-01	0.000000e+00	0.0	7.200000e-01	0.000000e+00	0.0	7.300000e-01	0.000000e+00	0.0	7.400000e-01	0.000000e+00	0.0	7.500000e-01	0.000000e+00	0.0	7.600000e-01	0.000000e+00	0.0	7.700000e-01	0.000000e+00	0.0	7.800000e-01	0.000000e+00	0.0	7.900000e-01	0.000000e+00	0.0	8.000000e-01	0.000000e+00	0.0	8.100000e-01	0.000000e+00	0.0	8.200000e-01	0.000000e+00	0.0	8.300000e-01	0.000000e+00	0.0	8.400000e-01	0.000000e+00	0.0	8.500000e-01	0.000000e+00	0.0	8.600000e-01	0.000000e+00	0.0	8.700000e-01	0.000000e+00	0.0	8.800000e-01	0.000000e+00	0.0	8.900000e-01	0.000000e+00	0.0	9.000000e-01	0.000000e+00	0.0	9.100000e-01	0.000000e+00	0.0	9.200000e-01	0.000000e+00	0.0	9.300000e-01	0.000000e+00	0.0	9.400000e-01	0.000000e+00	0.0	9.500000e-01	0.000000e+00	0.0	9.600000e-01	0.000000e+00	0.0	9.700000e-01	0.000000e+00	0.0	9.800000e-01	0.000000e+00	0.0	9.900000e-01	0.000000e+00	0.0	1.000000e+00	0.000000e+00	0.0	0.000000e+00	1.000000e-02	0.0	1.000000e-02	1.000000e-02	0.0	2.000000e-02	1.000000e-02	0.0	3.000000e-02	1.000000e-02	0.0	4.000000e-02	1.000000e-02	0.0	5.000000e-02	1.000000e-02	0.0	6.000000e-02	1.000000e-02	0.0	7.000000e-02	1.000000e-02	0.0	8.000000e-02	1.000000e-02	0.0	9.000000e-02	1.000000e-02	0.0	1.000000e-01	1.000000e-02	0.0	1.100000e-01	1.000000e-02	0.0	1.200000e-01	1.000000e-02	0.0	1.300000e-01	1.000000e-02	0.0	1.400000e-01	1.000000e-02	0.0	1.500000e-01	1.000000e-02	0.0	1.600000e-01	1.000000e-02	0.0	1.700000e-01	1.000000e-02	0.0	1.800000e-01	1.000000e-02	0.0	1.900000e-01	1.000000e-02	0.0	2.000000e-01	1.000000e-02	0.0	2.100000e-01	1.000000e-02	0.0	2.200000e-01	1.000000e-02	0.0	2.300000e-01	1.000000e-02	0.0	2.400000e-01	1.000000e-02	0.0	2.500000e-01	1.000000e-02	0.0	2.600000e-01	1.000000e-02	0.0	2.700000e-01	1.000000e-02	0.0	2.800000e-01	1.000000e-02	0.0	2.900000e-01	1.000000e-02	0.0	3.000000e-01	1.000000e-02	0.0	3.100000e-01	1.000000e-02	0.0	3.200000e-01	1.000000e-02	0.0	3.300000e-01	1.000000e-02	0.0	3.400000e-01	1.000000e-02	0.0	3.500000e-01	1.000000e-02	0.0	3.600000e-01	1.000000e-02	0.0	3.700000e-01	1.000000e-02	0.0	3.800000e-01	1.000000e-02	0.0	3.900000e-01	1.000000e-02	0.0	4.000000e-01	1.000000e-02	0.0	4.100000e-01	1.000000e-02	0.0	4.200000e-01	1.000000e-02	0.0	4.300000e-01	1.000000e-02	0.0	4.400000e-01	1.000000e-02	0.0	4.500000e-01	1.000000e-02	0.0	4.600000e-01	1.000000e-02	0.0	4.700000e-01	1.000000e-02	0.0	4.800000e-01	1.000000e-02	0.0	4.900000e-01	1.000000e-02	0.0	5.000000e-01	1.000000e-02	0.0	5.100000e-01	1.000000e-02	0.0	5.200000e-01	1.000000e-02	0.0	5.300000e-01	1.000000e-02	0.0	5.400000e-01	1.000000e-02	0.0	5.500000e-01	1.000000e-02	0.0	5.600000e-01	1.000000e-02	0.0	5.700000e-01	1.000000e-02	0.0	5.800000e-01	1.000000e-02	0.0	5.900000e-01	1.000000e-02	0.0	6.000000e-01	1.000000e-02	0.0	6.100000e-01	1.000000e-02	0.0	6.200000e-01	1.000000e-02	0.0	6.300000e-01	1.000000e-02	0.0	6.400000e-01	1.000000e-02	0.0	6.500000e-01	1.000000e-02	0.0	6.600000e-01	1.000000e-02	0.0	6.700000e-01	1.000000e-02	0.0	6.800000e-01	1.000000e-02	0.0	6.900000e-01	1.000000e-02	0.0	7.000000e-01	1.000000e-02	0.0	7.100000e-01	1.000000e-02	0.0	7.200000e-01	1.000000e-02	0.0	7.300000e-01	1.000000e-02	0.0	7.400000e-01	1.000000e-02	0.0	7.500000e-01	1.000000e-02	0.0	7.600000e-01	1.000000e-02	0.0	7.700000e-01	1.000000e-02	0.0	7.800000e-01	1.000000e-02	0.0	7.900000e-01	1.000000e-02	0.0	8.000000e-01	1.000000e-02	0.0	8.100000e-01	1.000000e-02	0.0	8.200000e-01	1.000000e-02	0.0	8.300000e-01	1.000000e-02	0.0	8.400000e-01	1.000000e-02	0.0	8.500000e-01	1.000000e-02	0.0	8.600000e-01	1.000000e-02	0.0	8.700000e-01	1.000000e-02	0.0	8.800000e-01	1.000000e-02	0.0	8.900000e-01	1.000000e-02	0.0	9.000000e-01	1.000000e-02	0.0	9.100000e-01	1.000000e-02	0.0	9.200000e-01	1.000000e-02	0.0	9.300000e-01	1.000000e-02	0.0	9.400000e-01	1.000000e-02	0.0	9.500000e-01	1.000000e-02	0.0	9.600000e-01	1.000000e-02	0.0	9.700000e-01	1.000000e-02	0.0	9.800000e-01	1.000000e-02	0.0	9.900000e-01	1.000000e-02	0.0	1.000000e+00	1.000000e-02	0.0	0.000000e+00	2.000000e-02	0.0	1.000000e-02	2.000000e-02	0.0	2.000000e-02	2.000000e-02	0.0	3.000000e-02	2.000000e-02	0.0	4.000000e-02	2.000000e-02	0.0	5.000000e-02	2.000000e-02	0.0	6.000000e-02	2.000000e-02	0.0	7.000000e-02	2.000000e-02	0.0	8.000000e-02	2.000000e-02	0.0	9.000000e-02	2.000000e-02	0.0	1.000000e-01	2.000000e-02	0.0	1.100000e-01	2.000000e-02	0.0	1.200000e-01	2.000000e-02	0.0	1.300000e-01	2.000000e-02	0.0	1.400000e-01	2.000000e-02	0.0	1.500000e-01	2.000000e-02	0.0	1.600000e-01	2.000000e-02	0.0	1.700000e-01	2.000000e-02	0.0	1.800000e-01	2.000000e-02	0.0	1.900000e-01	2.000000e-02	0.0	2.000000e-01	2.000000e-02	0.0	2.100000e-01	2.000000e-02	0.0	2.200000e-01	2.000000e-02	0.0	2.300000e-01	2.000000e-02	0.0	2.400000e-01	2.000000e-02	0.0	2.500000e-01	2.000000e-02	0.0	2.600000e-01	2.000000e-02	0.0	2.700000e-01	2.000000e-02	0.0	2.800000e-01	2.000000e-02	0.0	2.900000e-01	2.000000e-02	0.0	3.000000e-01	2.000000e-02	0.0	3.100000e-01	2.000000e-02	0.0	3.200000e-01	2.000000e-02	0.0	3.300000e-01	2.000000e-02	0.0	3.400000e-01	2.000000e-02	0.0	3.500000e-01	2.000000e-02	0.0	3.600000e-01	2.000000e-02	0.0	3.700000e-01	2.000000e-02	0.0	3.800000e-01	2.000000e-02	0.0	3.900000e-01	2.000000e-02	0.0	4.000000e-01	2.000000e-02	0.0	4.100000e-01	2.000000e-02	0.0	4.200000e-01	2.000000e-02	0.0	4.300000e-01	2.000000e-02	0.0	4.400000e-01	2.000000e-02	0.0	4.500000e-01	2.000000e-02	0.0	4.600000e-01	2.000000e-02	0.0	4.700000e-01	2.000000e-02	0.0	4.800000e-01	2.000000e-02	0.0	4.900000e-01	2.000000e-02	0.0	5.000000e-01	2.000000e-02	0.0	5.100000e-01	2.000000e-02	0.0	5.200000e-01	2.000000e-02	0.0	5.300000e-01	2.000000e-02	0.0	5.400000e-01	2.000000e-02	0.0	5.500000e-01	2.000000e-02	0.0	5.600000e-01	2.000000e-02	0.0	5.700000e-01	2.000000e-02	0.0	5.800000e-01	2.000000e-02	0.0	5.900000e-01	2.000000e-02	0.0	6.000000e-01	2.000000e-02	0.0	6.100000e-01	2.000000e-02	0.0	6.200000e-01	2.000000e-02	0.0	6.300000e-01	2.000000e-02	0.0	6.400000e-01	2.000000e-02	0.0	6.500000e-01	2.000000e-02	0.0	6.600000e-01	2.000000e-02	0.0	6.700000e-01	2.000000e-02	0.0	6.800000e-01	2.000000e-02	0.0	6.900000e-01	2.000000e-02	0.0	7.000000e-01	2.000000e-02	0.0	7.100000e-01	2.000000e-02	0.0	7.200000e-01	2.000000e-02	0.0	7.300000e-01	2.000000e-02	0.0	7.400000e-01	2.000000e-02	0.0	7.500000e-01	2.000000e-02	0.0	7.600000e-01	2.000000e-02	0.0	7.700000e-01	2.000000e-02	0.0	7.800000e-01	2.000000e-02	0.0	7.900000e-01	2.000000e-02	0.0	8.000000e-01	2.000000e-02	0.0	8.100000e-01	2.000000e-02	0.0	8.200000e-01	2.000000e-02	0.0	8.300000e-01	2.000000e-02	0.0	8.400000e-01	2.000000e-02	0.0	8.500000e-01	2.000000e-02	0.0	8.600000e-01	2.000000e-02	0.0	8.700000e-01	2.000000e-02	0.0	8.800000e-01	2.000000e-02	0.0	8.900000e-01	2.000000e-02	0.0	9.000000e-01	2.000000e-02	0.0	9.100000e-01	2.000000e-02	0.0	9.200000e-01	2.000000e-02	0.0	9.300000e-01	2.000000e-02	0.0	9.400000e-01	2.000000e-02	0.0	9.500000e-01	2.000000e-02	0.0	9.600000e-01	2.000000e-02	0.0	9.700000e-01	2.000000e-02	0.0	9.800000e-01	2.000000e-02	0.0	9.900000e-01	2.000000e-02	0.0	1.000000e+00	2.000000e-02	0.0	0.000000e+00	3.000000e-02	0.0	1.000000e-02	3.000000e-02	0.0	2.000000e-02	3.000000e-02	0.0	3.000000e-02	3.000000e-02	0.0	4.000000e-02	3.000000e-02	0.0	5.000000e-02	3.000000e-02	0.0	6.000000e-02	3.000000e-02	0.0	7.000000e-02	3.000000e-02	0.0	8.000000e-02	3.000000e-02	0.0	9.000000e-02	3.000000e-02	0.0	1.000000e-01	3.000000e-02	0.0	1.100000e-01	3.000000e-02	0.0	1.200000e-01	3.000000e-02	0.0	1.300000e-01	3.000000e-02	0.0	1.400000e-01	3.000000e-02	0.0	1.500000e-01	3.000000e-02	0.0	1.600000e-01	3.000000e-02	0.0	1.700000e-01	3.000000e-02	0.0	1.800000e-01	3.000000e-02	0.0	1.900000e-01	3.000000e-02	0.0	2.000000e-01	3.000000e-02	0.0	2.100000e-01	3.000000e-02	0.0	2.200000e-01	3.000000e-02	0.0	2.300000e-01	3.000000e-02	0.0	2.400000e-01	3.000000e-02	0.0	2.500000e-01	3.000000e-02	0.0	2.600000e-01	3.000000
[...]
POINT_DATA 10201

SCALARS Height double 1
LOOKUP_TABLE default
9.995432e-01	9.995540e-01	9.995566e-01	9.995574e-01	9.995573e-01	9.995568e-01	9.995559e-01	9.995546e-01	9.995532e-01	9.995538e-01	9.995536e-01	9.995523e-01	9.995489e-01	9.995434e-01	9.995372e-01	9.995322e-01	9.995329e-01	9.995410e-01	9.995545e-01	9.995912e-01	9.996880e-01	9.999600e-01	1.000626e+00	1.002155e+00	1.004975e+00	1.008816e+00	1.012546e+00	1.014913e+00	1.015836e+00	1.015961e+00	1.015674e+00	1.014755e+00	1.012909e+00	1.010093e+00	1.006699e+00	1.003139e+00	9.997939e-01	9.968956e-01	9.945799e-01	9.929388e-01	9.919663e-01	9.915439e-01	9.914704e-01	9.915261e-01	9.917226e-01	9.921557e-01	9.928955e-01	9.938412e-01	9.948019e-01	9.956313e-01	9.962809e-01	9.967675e-01	9.971271e-01	9.973900e-01	9.975745e-01	9.976959e-01	9.977682e-01	9.978084e-01	9.978327e-01	9.978629e-01	9.979478e-01	9.981777e-01	9.987770e-01	1.000193e+00	1.002935e+00	1.006883e+00	1.010934e+00	1.013658e+00	1.014816e+00	1.015019e+00	1.014829e+00	1.014041e+00	1.012371e+00	1.009730e+00	1.006453e+00	1.002939e+00	9.995712e-01	9.965983e-01	9.941682e-01	9.923902e-01	9.912826e-01	9.907485e-01	9.906016e-01	9.906192e-01	9.907722e-01	9.911411e-01	9.917925e-01	9.926975e-01	9.936580e-01	9.945029e-01	9.951603e-01	9.956330e-01	9.959599e-01	9.961828e-01	9.963362e-01	9.964439e-01	9.965217e-01	9.965787e-01	9.966202e-01	9.966442e-01	9.966568e-01	9.995531e-01	9.995632e-01	9.995569e-01	9.995573e-01	9.995574e-01	9.995576e-01	9.995577e-01	9.995575e-01	9.995579e-01	9.995575e-01	9.995563e-01	9.995539e-01	9.995497e-01	9.995444e-01	9.995391e-01	9.995343e-01	9.995306e-01	9.995336e-01	9.995404e-01	9.995635e-01	9.996100e-01	9.997552e-01	1.000340e+00	1.001936e+00	1.005017e+00	1.009103e+00	1.012755e+00	1.014994e+00	1.015853e+00	1.015972e+00	1.015815e+00	1.014932e+00	1.012979e+00	1.010074e+00	1.006593e+00	1.003010e+00	9.996657e-01	9.967652e-01	9.944663e-01	9.928709e-01	9.919565e-01	9.915724e-01	9.914851e-01	9.915040e-01	9.916623e-01	9.921133e-01	9.928823e-01	9.938434e-01	9.948086e-01	9.956372e-01	9.962841e-01	9.967675e-01	9.971235e-01	9.973828e-01	9.975653e-01	9.976855e-01	9.977573e-01	9.977967e-01	9.978182e-01	9.978342e-01	9.978659e-01	9.979962e-01	9.984914e-01	9.999313e-01	1.002922e+00	1.007153e+00	1.011151e+00	1.013743e+00	1.014830e+00	1.015032e+00	1.014937e+00	1.014208e+00	1.012447e+00	1.009721e+00	1.006356e+00	1.002810e+00	9.994400e-01	9.964622e-01	9.940457e-01	9.923071e-01	9.912546e-01	9.907690e-01	9.906266e-01	9.906104e-01	9.907105e-01	9.910772e-01	9.917754e-01	9.926978e-01	9.936627e-01	9.945088e-01	9.951636e-01	9.956329e-01	9.959557e-01	9.961746e-01	9.963245e-01	9.964305e-01	9.965085e-01	9.965670e-01	9.966096e-01	9.966337e-01	9.966463e-01	9.995626e-01	9.995707e-01	9.995668e-01	9.995666e-01	9.995658e-01	9.995651e-01	9.995640e-01	9.995621e-01	9.995600e-01	9.995600e-01	9.995598e-01	9.995587e-01	9.995562e-01	9.995525e-01	9.995479e-01	9.995433e-01	9.995388e-01	9.995349e-01	9.995419e-01	9.995670e-01	9.996098e-01	9.997531e-01	1.000363e+00	1.002038e+00	1.005197e+00	1.009261e+00	1.012795e+00	1.014926e+00	1.015773e+00	1.015914e+00	1.015806e+00	1.014986e+00	1.012958e+00	1.010007e+00	1.006592e+00	1.003094e+00	9.997854e-01	9.969059e-01	9.946279e-01	9.930361e-01	9.921010e-01	9.916806e-01	9.915619e-01	9.915602e-01	9.916844e-01	9.921299e-01	9.929083e-01	9.938612e-01	9.948115e-01	9.956343e-01	9.962825e-01	9.967684e-01	9.971262e-01	9.973877e-01	9.975732e-01	9.976956e-01	9.977681e-01	9.978058e-01	9.978241e-01	9.978380e-01	9.978709e-01	9.980065e-01	9.985194e-01	1.000024e+00	1.003111e+00	1.007339e+00	1.011219e+00	1.013695e+00	1.014752e+00	1.014975e+00	1.014907e+00	1.014258e+00	1.012447e+00	1.009660e+00	1.006344e+00	1.002881e+00	9.995510e-01	9.965967e-01	9.942021e-01	9.924710e-01	9.914041e-01	9.908838e-01	9.907061e-01	9.906736e-01	9.907371e-01	9.910953e-01	9.918053e-01	9.927190e-01	9.936647e-01	9.945015e-01	9.951560e-01	9.956279e-01	9.959537e-01	9.961760e-01	9.963303e-01	9.964407e-01	9.965212e-01	9.965792e-01	9.966194e-01	9.966418e-01	9.966525e-01	9.995665e-01	9.995736e-01	9.995687e-01	9.995677e-01	9.995674e-01	9.995669e-01	9.995660e-01	9.995636e-01	9.995616e-01	9.995603e-01	9.995591e-01	9.995575e-01	9.995552e-01	9.995521e-01	9.995486e-01	9.995453e-01	9.995417e-01	9.995378e-01	9.995419e-01	9.995645e-01	9.996035e-01	9.997244e-01	1.000304e+00	1.001999e+00	1.005218e+00	1.009308e+00	1.012809e+00	1.014886e+00	1.015716e+00	1.015862e+00	1.015775e+00	1.015056e+00	1.013043e+00	1.010015e+00	1.006589e+00	1.003114e+00	9.998334e-01	9.969673e-01	9.946961e-01	9.931017e-01	9.921580e-01	9.917244e-01	9.915968e-01	9.915890e-01	9.916843e-01	9.921051e-01	9.928940e-01	9.938551e-01	9.947975e-01	9.956149e-01	9.962659e-01	9.967572e-01	9.971203e-01	9.973863e-01	9.975745e-01	9.976977e-01	9.977698e-01	9.978059e-01	9.978221e-01	9.978340e-01	9.978625e-01	9.979853e-01	9.984780e-01	9.999850e-01	1.003127e+00	1.007380e+00	1.011231e+00	1.013647e+00	1.014678e+00	1.014908e+00	1.014858e+00	1.014306e+00	1.012538e+00	1.009677e+00	1.006338e+00	1.002895e+00	9.995927e-01	9.966530e-01	9.942652e-01	9.925338e-01	9.914600e-01	9.909278e-01	9.907425e-01	9.907066e-01	9.907466e-01	9.910701e-01	9.917843e-01	9.927125e-01	9.936519e-01	9.944804e-01	9.951365e-01	9.956143e-01	9.959457e-01	9.961732e-01	9.963321e-01	9.964452e-01	9.965261e-01	9.965825e-01	9.966203e-01	9.966409e-01	9.966521e-01	9.995680e-01	9.995757e-01	9.995701e-01	9.995689e-01	9.995672e-01	9.995661e-01	9.995647e-01	9.995630e-01	9.995609e-01	9.995585e-01	9.995563e-01	9.995542e-01	9.995518e-01	9.995492e-01	9.995466e-01	9.995433e-01	9.995422e-01	9.995394e-01	9.995437e-01	9.995645e-01	9.996009e-01	9.997116e-01	1.000266e+00	1.001954e+00	1.005204e+00	1.009300e+00	1.012762e+00	1.014798e+00	1.015612e+00	1.015766e+00	1.015698e+00	1.015070e+00	1.013146e+00	1.010083e+00	1.006620e+00	1.003169e+00	9.999189e-01	9.970693e-01	9.947950e-01	9.931863e-01	9.922223e-01	9.917698e-01	9.916307e-01	9.916181e-01	9.916913e-01	9.920733e-01	9.928580e-01	9.938369e-01	9.947801e-01	9.955904e-01	9.962416e-01	9.967406e-01	9.971130e-01	9.973850e-01	9.975750e-01	9.976981e-01	9.977684e-01	9.978025e-01	9.978177e-01	9.978292e-01	9.978570e-01	9.979746e-01	9.984546e-01	9.999552e-01	1.003115e+00	1.007382e+00	1.011193e+00	1.013561e+00	1.014579e+00	1.014813e+00	1.014772e+00	1.014300e+00	1.012635e+00	1.009756e+00	1.006370e+00	1.002944e+00	9.996716e-01	9.967499e-01	9.943617e-01	9.926183e-01	9.915258e-01	9.909757e-01	9.907778e-01	9.907365e-01	9.907614e-01	9.910450e-01	9.917438e-01	9.926892e-01	9.936332e-01	9.944525e-01	9.951066e-01	9.955916e-01	9.959329e-01	9.961692e-01	9.963333e-01	9.964483e-01	9.965284e-01	9.965829e-01	9.966191e-01	9.966389e-01	9.966504e-01	9.995649e-01	9.995719e-01	9.995678e-01	9.995674e-01	9.995655e-01	9.995637e-01	9.995620e-01	9.995597e-01	9.995579e-01	9.995560e-01	9.995538e-01	9.995514e-01	9.995487e-01	9.995461e-01	9.995439e-01	9.995415e-01	9.995417e-01	9.995399e-01	9.995440e-01	9.995624e-01	9.995946e-01	9.997007e-01	1.000241e+00	1.001911e+00	1.005160e+00	1.009262e+00	1.012694e+00	1.014692e+00	1.015495e+00	1.015654e+00	1.015595e+00	1.015035e+00	1.013222e+00	1.010193e+00	1.006693e+00	1.003242e+00	1.000026e+00	9.971945e-01	9.949093e-01	9.932773e-01	9.922875e-01	9.918116e-01	9.916580e-01	9.916421e-01	9.917014e-01	9.920391e-01	9.927984e-01	9.937920e-01	9.947495e-01	9.955580e-01	9.962073e-01	9.967116e-01	9.970922e-01	9.973691e-01	9.975613e-01	9.976842e-01	9.977534e-01	9.977878e-01	9.978045e-01	9.978180e-01	9.978472e-01	9.979636e-01	9.984381e-01	9.999324e-01	1.003090e+00	1.007355e+00	1.011124e+00	1.013448e+00	1.014450e+00	1.014694e+00	1.014666e+00	1.014247e+00	1.012696e+00	1.009869e+00	1.006449e+00	1.003012e+00	9.997710e-01	9.968700e-01	9.944747e-01	9.927107e-01	9.915932e-01	9.910187e-01	9.908045e-01	9.907584e-01	9.907766e-01	9.910228e-01	9.916869e-01	9.926395e-01	9.935989e-01	9.944180e-01	9.950680e-01	9.955566e-01	9.959072e-01	9.961522e-01	9.963213e-01	9.964378e-01	9.965179e-01	9.965729e-01	9.966104e-01	9.966309e-01	9.966437e-01	9.995590e-01	9.995667e-01	9.995623e-01	9.995624e-01	9.995603e-01	9.995588e-01	9.995571e-01	9.995556e-01	9.995544e-01	9.995537e-01	9.995524e-01	9.995501e-01	9.995469e-01	9.995437e-01	9.995413e-01	9.995396e-01	9.995391e-01	9.995389e-01	9.995417e-01	9.995562e-01	9.995831e-01	9.996898e-01	1.000225e+00	1.001867e+00	1.005103e+00	1.009196e+00	1.012608e+00	1.014581e+00	1.015367e+00	1.015529e+00	1.015479e+00	1.014966e+00	1.013260e+00	1.010308e+00	1.006800e+00	1.003334e+00	1.000143e+00	9.973320e-01	9.950399e-01	9.933819e-01	9.923623e-01	9.918632e-01	9.916934e-01	9.916735e-01	9.917204e-01	9.920115e-01	9.927246e-01	9.937165e-01	9.946961e-01	9.955157e-01	9.961669e-01	9.966723e-01	9.970544e-01	9.973336e-01	9.975273e-01	9.976517e-01	9.977242e-01	9.977629e-01	9.977837e-01	9.978004e-01	9.978321e-01	9.979497e-01	9.984227e-01	9.999099e-01	1.003052e+00	1.007291e+00	1.011035e+00	1.013328e+00	1.014309e+00	1.014554e+00	1.014533e+00	1.014163e+00	1.012714e+00	1.009977e+00	1.006560e+00	1.003103e+00	9.998816e-01	9.970021e-01	9.946036e-01	9.928161e-01	9.916708e-01	9.910718e-01	9.908383e-01	9.907869e-01	9.907993e-01	9.910083e-01	9.916220e-01	9.925620e-01	9.935394e-01	9.943724e-01	9.950237e-01	9.955121e-01	9.958658e-01	9.961148e-01	9.962874e-01	9.964070e-01	9.964911e-01	9.965508e-01	9.965930e-01	9.966157e-01	9.966309e-01	9.995514e-01	9.995603e-01	9.995559e-01	9.995560e-01	9.995544e-01	9.995530e-01	9.995519e-01	9.995510e-01	9.995514e-01	9.995518e-01	9.995516e-01	9.995499e-01	9.995467e-01	9.995431e-01	9.995403e-01	9.995381e-01	9.995374e-01	9.995364e-01	9.995383e-01	9.995474e-01	9.995705e-01	9.996825e-01	1.000211e+00	1.001823e+00	1.005030e+00	1.009103e+00	1.012502e+00	1.014464e+00	1.015242e+00	1.015402e+00	1.015355e+00	1.014883e+00	1.013277e+00	1.010421e+00	1.006938e+00	1.003458e+00	1.000266e+00	9.974713e-01	9.951815e-01	9.935022e-01	9.924513e-01	9.919254e-01	9.917417e-01	9.917168e-01	9.917524e-01	9.919938e-01	9.926445e-01	9.936144e-01	9.946121e-01	9.954556e-01	9.961177e-01	9.966253e-01	9.970077e-01	9.972875e-01	9.974833e-01	9.976125e-01	9.976913e-01	9.977352e-01	9.977599e-01	9.977793e-01	9.978132e-01	9.979333e-01	9.984077e-01	9.998857e-01	1.002999e+00	1.007202e+00	1.010923e+00	1.013204e+00	1.014176e+00	1.014415e+00	1.014395e+00	1.014055e+00	1.012707e+00	1.010077e+00	1.006697e+00	1.003227e+00	1.000000e+00	9.971361e-01	9.947426e-01	9.929364e-01	9.917608e-01	9.911368e-01	9.908886e-01	9.908295e-01	9.908331e-01	9.910016e-01	9.915544e-01	9.924622e-01	9.934520e-01	9.943067e-01	9.949690e-01	9.954599e-01	9.958139e-01	9.960647e-01	9.962412e-01	9.963668e-01	9.964576e-01	9.965232e-01	9.965698e-01	9.965942e-01	9.966121e-01	9.995458e-01	9.995555e-01	9.995511e-01	9.995519e-01	9.995506e-01	9.995497e-01	9.995491e-01	9.995496e-01	9.995497e-01	9.995507e-01	9.995509e-01	9.995501e-01	9.995473e-01	9.995436e-01	9.995402e-01	9.995376e-01	9.995355e-01	9.995352e-01	9.995336e-01	9.995386e-01	9.995615e-01	9.996789e-01	1.000199e+00	1.001780e+00	1.004943e+00	1.008981e+00	1.012369e+00	1.014335e+00	1.015117e+00	1.015278e+00	1.015233e+00	1.014800e+00	1.013295e+00	1.010542e+00	1.007103e+00	1.003614e+00	1.000411e+00	9.976227e-01	9.953371e-01	9.936425e-01	9.925610e-01	9.920041e-01	9.918021e-01	9.917725e-01	9.917968e-01	9.919884e-01	9.925675e-01	9.934980e-01	9.945023e-01	9.953712e-01	9.960534e-01	9.965715e-01	9.969612e-01	9.972468e-01	9.974482e-01	9.975825e-01	9.976650e-01	9.977117e-01	9.977383e-01	9.977587e-01	9.977946e-01	9.979191e-01	9.983978e-01	9.998637e-01	1.002932e+00	1.007084e+00	1.010783e+00	1.013066e+00	1.014044e+00	1.014284e+00	1.014263e+00	1.013948e+00	1.012696e+00	1.010180e+00	1.006855e+00	1.003381e+00	1.000141e+00	9.972820e-01	9.948944e-01	9.930755e-01	9.918710e-01	9.912165e-01	9.909517e-01	9.908844e-01	9.908802e-01	9.910072e-01	9.914914e-01	9.923510e-01	9.933364e-01	9.942137e-01	9.948980e-01	9.954010e-01	9.957619e-01	9.960190e-01	9.962023e-01	9.963343e-01	9.964301e-01	9.964986e-01	9.965465e-01	9.965706e-01	9.965905e-01	9.995440e-01	9.995536e-01	9.995496e-01	9.995511e-01	9.995501e-01	9.995492e-01	9.995489e-01	9.995495e-01	9.995508e-01	9.995508e-01	9.995514e-01	9.995503e-01	9.995480e-01	9.995444e-01	9.995405e-01	9.995374e-01	9.995349e-01	9.995347e-01	9.995340e-01	9.995367e-01	9.995602e-01	9.996840e-01	1.000198e+00	1.001746e+00	1.004848e+00	1.008830e+00	1.012204e+00	1.014186e+00	1.014985e+00	1.015153e+00	1.015113e+00	1.014724e+00	1.013324e+00	1.010682e+00	1.007301e+00	1.003816e+00	1.000599e+00	9.978055e-01	9.955178e-01	9.938090e-01	9.926972e-01	9.921054e-01	9.918761e-01	9.918350e-01	9.918527e-01	9.919984e-01	9.925023e-01	9.933840e-01	9.943852e-01	9.952757e-01	9.959816e-01	9.965184e-01	9.969210e-01	9.972166e-01	9.974248e-01	9.975628e-01	9.976470e-01	9.976945e-01	9.977213e-01	9.977423e-01	9.977807e-01	9.979126e-01	9.983996e-01	9.998517e-01	1.002860e+00	1.006939e+00	1.010610e+00	1.012906e+00	1.013903e+00	1.014152e+00	1.014134e+00	1.013851e+00	1.012694e+00	1.010299e+00	1.007044e+00	1.003580e+00	1.000326e+00	9.974589e-01	9.950704e-01	9.932398e-01	9.920075e-01	9.913190e-01	9.910261e-01	9.909469e-01	9.909369e-01	9.910279e-01	9.914419e-01	9.922441e-01	9.932164e-01	9.941108e-01	9.948190e-01	9.953409e-01	9.957158e-01	9.959840e-01	9.961761e-01	9.963140e-01	9.964126e-01	9.964815e-01	9.965284e-01	9.965510e-01	9.965720e-01	9.995445e-01	9.995551e-01	9.995500e-01	9.995521e-01	9.995512e-01	9.995503e-01	9.995500e-01	9.995505e-01	9.995519e-01	9.995525e-01	9.995521e-01	9.995520e-01	9.995494e-01	9.995460e-01	9.995420e-01	9.995383e-01	9.995351e-01	9.995339e-01	9.995328e-01	9.995371e-01	9.995634e-01	9.996901e-01	1.000200e+00	1.001718e+00	1.004747e+00	1.008655e+00	1.012006e+00	1.014010e+00	1.014837e+00	1.015021e+00	1.014989e+00	1.014648e+00	1.013363e+00	1.010846e+00	1.007536e+00	1.004069e+00	1.000843e+00	9.980362e-01	9.957363e-01	9.940060e-01	9.928596e-01	9.922284e-01	9.919663e-01	9.919056e-01	9.919161e-01	9.920225e-01	9.924508e-01	9.932762e-01	9.942691e-01	9.951790e-01	9.959097e-01	9.964678e-01	9.968861e-01	9.971928e-01	9.974073e-01	9.975480e-01	9.976331e-01	9.976806e-01	9.977076e-01	9.977299e-01	9.977729e-01	9.979141e-01	9.984119e-01	9.998500e-01	1.002787e+00	1.006773e+00	1.010404e+00	1.012715e+00	1.013743e+00	1.014010e+00	1.013998e+00	1.013752e+00	1.012701e+00	1.010436e+00	1.007267e+00	1.003829e+00	1.000565e+00	9.976840e-01	9.952841e-01	9.934353e-01	9.921711e-01	9.914433e-01	9.911160e-01	9.910162e-01	9.909992e-01	9.910612e-01	9.914066e-01	9.921462e-01	9.930987e-01	9.940057e-01	9.947375e-01	9.952818e-01	9.956743e-01	9.959555e-01	9.961563e-01	9.962992e-01	9.964003e-01	9.964695e-01	9.965153e-01	9.965366e-01	9.965581e-01	9.995463e-01	9.995575e-01	9.995514e-01	9.995538e-01	9.995529e-01	9.995520e-01	9.995514e-01	9.995518e-01	9.995525e-01	9.995533e-01	9.995529e-01	9.995522e-01	9.995516e-01	9.995483e-01	9.995442e-01	9.995403e-01	9.995365e-01	9.995341e-01	9.995323e-01	9.995363e-01	9.995651e-01	9.996975e-01	1.000206e+00	1.001691e+00	1.004640e+00	1.008459e+00	1.011777e+00	1.013804e+00	1.014668e+00	1.014875e+00	1.014853e+00	1.014562e+00	1.013401e+00	1.011021e+00	1.007800e+00	1.004365e+00	1.001138e+00	9.983158e-01	9.959946e-01	9.942320e-01	9.930424e-01	9.923658e-01	9.920671e-01	9.919855e-01	9.919873e-01	9.920609e-01	9.924117e-01	9.931701e-01	9.941497e-01	9.950799e-01	9.958373e-01	9.964169e-01	9.968503e-01	9.971672e-01	9.973880e-01	9.975318e-01	9.976180e-01	9.976659e-01	9.976938e-01	9.977187e-01	9.977671e-01	9.979191e-01	9.984285e-01	9.998522e-01	1.002712e+00	1.006592e+00	1.010168e+00	1.012492e+00	1.013558e+00	1.013851e+00	1.013849e+00	1.013644e+00	1.012706e+00	1.010584e+00	1.007516e+00	1.004117e+00	1.000854e+00	9.979573e-01	9.955375e-01	9.936607e-01	9.923563e-01	9.915829e-01	9.912170e-01	9.910942e-01	9.910687e-01	9.911048e-01	9.913824e-01	9.920524e-01	9.929788e-01	9.938970e-01	9.946531e-01	9.952208e-01	9.956314e-01	9.959251e-01	9.961345e-01	9.962829e-01	9.963867e-01	9.964571e-01	9.965032e-01	9.965240e-01	9.965461e-01	9.995473e-01	9.995590e-01	9.995516e-01	9.995544e-01	9.995535e-01	9.995528e-01	9.995521e-01	9.995521e-01	9.995524e-01	9.995523e-01	9.995524e-01	9.995518e-01	9.995511e-01	9.995496e-01	9.995464e-01	9.995422e-01	9.995376e-01	9.995338e-01	9.995310e-01	9.995348e-01	9.995662e-01	9.997047e-01	1.000213e+00	1.001665e+00	1.004527e+00	1.008248e+00	1.011523e+00	1.013568e+00	1.014472e+00	1.014708e+00	1.014699e+00	1.014460e+00	1.013424e+00	1.011194e+00	1.008078e+00	1.004687e+00	1.001464e+00	9.986290e-01	9.962828e-01	9.944813e-01	9.932416e-01	9.925127e-01	9.921735e-01	9.920691e-01	9.920639e-01	9.921111e-01	9.923828e-01	9.930607e-01	9.940175e-01	9.949688e-01	9.957560e-01	9.963587e-01	9.968071e-01	9.971337e-01	9.973608e-01	9.975086e-01	9.975970e-01	9.976466e-01	9.976770e-01	9.977058e-01	9.977610e-01	9.979249e-01	9.984476e-01	9.998561e-01	1.002635e+00	1.006399e+00	1.009909e+00	1.012239e+00	1.013344e+00	1.013670e+00	1.013680e+00	1.013516e+00	1.012696e+00	1.010729e+00	1.007778e+00	1.004430e+00	1.001173e+00	9.982628e-01	9.958201e-01	9.939095e-01	9.925585e-01	9.917336e-01	9.913251e-01	9.911775e-01	9.911441e-01	9.911581e-01	9.913662e-01	9.919554e-01	9.928468e-01	9.937749e-01	9.945576e-01	9.951504e-01	9.955795e-01	9.958860e-01	9.961043e-01	9.962588e-01	9.963667e-01	9.964395e-01	9.964871e-01	9.965084e-01	9.965317e-01	9.995467e-01	9.995583e-01	9.995497e-01	9.995529e-01	9.995524e-01	9.995521e-01	9.995515e-01	9.995512e-01	9.995508e-01	9.995502e-01	9.995495e-01	9.995492e-01	9.995491e-01	9.995478e-01	9.995459e-01	9.995420e-01	9.995363e-01	9.995312e-01	9.995271e-01	9.995303e-01	9.995642e-01	9.997095e-01	1.000219e+00	1.001637e+00	1.004407e+00	1.008021e+00	1.011248e+00	1.013308e+00	1.014250e+00	1.014515e+00	1.014522e+00	1.014336e+00	1.013423e+00	1.011354e+00	1.008358e+00	1.005022e+00	1.001809e+00	9.989626e-01	9.965918e-01	9.947512e-01	9.934569e-01	9.926708e-01	9.922846e-01	9.921520e-01	9.921369e-01	9.921650e-01	9.923632e-01	9.929470e-01	9.938657e-01	9.948353e-01	9.956567e-01	9.962871e-01	9.967529e-01	9.970896e-01	9.973232e-01	9.974759e-01	9.975678e-01	9.976210e-01	9.976554e-01	9.976894e-01	9.977528e-01	9.979300e-01	9.984668e-01	9.998596e-01	1.002553e+00	1.006195e+00	1.009633e+00	1.011963e+00	1.013104e+00	1.013464e+00	1.013489e+00	1.013364e+00	1.012661e+00	1.010860e+00	1.008040e+00	1.004754e+00	1.001508e+00	9.985868e-01	9.961222e-01	9.941779e-01	9.927786e-01	9.918975e-01	9.914409e-01	9.912624e-01	9.912179e-01	9.912155e-01	9.913565e-01	9.918526e-01	9.926955e-01	9.936302e-01	9.944421e-01	9.950635e-01	9.955134e-01	9.958338e-01	9.960618e-01	9.962236e-01	9.963369e-01	9.964140e-01	9.964647e-01	9.964874e-01	9.965123e-01	9.995442e-01	9.995553e-01	9.995457e-01	9.995493e-01	9.995492e-01	9.995496e-01	9.995493e-01	9.995491e-01	9.995483e-01	9.995469e-01	9.995457e-01	9.995451e-01	9.995453e-01	9.995450e-01	9.995423e-01	9.995377e-01	9.995317e-01	9.995252e-01	9.995196e-01	9.995223e-01	9.995591e-01	9.997117e-01	1.000222e+00	1.001605e+00	1.004278e+00	1.007780e+00	1.010956e+00	1.013028e+00	1.014007e+00	1.014302e+00	1.014323e+00	1.014179e+00	1.013393e+00	1.011497e+00	1.008633e+00	1.005363e+00	1.002168e+00	9.993131e-01	9.969198e-01	9.950415e-01	9.936930e-01	9.928433e-01	9.924025e-01	9.922355e-01	9.922052e-01	9.922197e-01	9.923537e-01	9.928337e-01	9.936942e-01	9.946742e-01	9.955337e-01	9.961985e-01	9.966869e-01	9.970363e-01	9.972776e-01	9.974357e-01	9.975325e-01	9.975907e-01	9.976301e-01	9.976700e-01	9.977421e-01	9.979337e-01	9.984854e-01	9.998609e-01	1.002464e+00	1.005978e+00	1.009338e+00	1.011667e+00	1.012845e+00	1.013239e+00	1.013279e+00	1.013184e+00	1.012595e+00	1.010969e+00	1.008294e+00	1.005082e+00	1.001856e+00	9.989276e-01	9.964438e-01	9.944683e-01	9.930214e-01	9.920806e-01	9.915674e-01	9.913509e-01	9.912876e-01	9.912740e-01	9.913558e-01	9.917493e-01	9.925247e-01	9.934585e-01	9.943021e-01	9.949569e-01	9.954318e-01	9.957686e-01	9.960077e-01	9.961779e-01	9.962981e-01	9.963810e-01	9.964363e-01	9.964613e-01	9.964883e-01	9.995402e-01	9.995510e-01	9.995408e-01	9.995441e-01	9.995440e-01	9.995453e-01	9.995459e-01	9.995460e-01	9.995450e-01	9.995435e-01	9.995419e-01	9.995412e-01	9.995411e-01	9.995403e-01	9.995371e-01	9.995314e-01	9.995245e-01	9.995169e-01	9.995109