# vtk DataFile Version 3.0
vtk output
ASCII
DATASET STRUCTURED_GRID
DIMENSIONS 101 101 1
POINTS 10201 double
0.000000e+00	0.000000e+00	0.0	1.000000e-02	0.000000e+00	0.0	2.000000e-02	0.000000e+00	0.0	3.000000e-02	0.000000e+00	0.0	4.000000e-02	0.000000e+00	0.0	5.000000e-02	0.000000e+00	0.0	6.000000e-02	0.000000e+00	0.0	7.000000e-02	0.000000e+00	0.0	8.000000e-02	0.000000e+00	0.0	9.000000e-02	0.000000e+00	0.0	1.000000e-01	0.000000e+00	0.0	1.100000e-01	0.000000e+00	0.0	1.200000e-01	0.000000e+00	0.0	1.300000e-01	0.000000e+00	0.0	1.400000e-01	0.000000e+00	0.0	1.500000e-01	0.000000e+00	0.0	1.600000e-01	0.000000e+00	0.0	1.700000e-01	0.000000e+00	0.0	1.800000e-01	0.000000e+00	0.0	1.900000e-01	0.000000e+00	0.0	2.000000e-01	0.000000e+00	0.0	2.100000e-01	0.000000e+00	0.0	2.200000e-01	0.000000e+00	0.0	2.300000e-01	0.000000e+00	0.0	2.400000e-01	0.000000e+00	0.0	2.500000e-01	0.000000e+00	0.0	2.600000e-01	0.000000e+00	0.0	2.700000e-01	0.000000e+00	0.0	2.800000e-01	0.000000e+00	0.0	2.900000e-01	0.000000e+00	0.0	3.000000e-01	0.000000e+00	0.0	3.100000e-01	0.000000e+00	0.0	3.200000e-01	0.000000e+00	0.0	3.300000e-01	0.000000e+00	0.0	3.400000e-01	0.000000e+00	0.0	3.500000e-01	0.000000e+00	0.0	3.600000e-01	0.000000e+00	0.0	3.700000e-01	0.000000e+00	0.0	3.800000e-01	0.000000e+00	0.0	3.900000e-01	0.000000e+00	0.0	4.000000e-01	0.000000e+00	0.0	4.100000e-01	0.000000e+00	0.0	4.200000e-01	0.000000e+00	0.0	4.300000e-01	0.000000e+00	0.0	4.400000e-01	0.000000e+00	0.0	4.500000e-01	0.000000e+00	0.0	4.600000e-01	0.000000e+00	0.0	4.700000e-01	0.000000e+00	0.0	4.800000e-01	0.000000e+00	0.0	4.900000e-01	0.000000e+00	0.0	5.000000e-01	0.000000e+00	0.0	5.100000e-01	0.000000e+00	0.0	5.200000e-01	0.000000e+00	0.0	5.300000e-01	0.000000e+00	0.0	5.400000e-01	0.000000e+00	0.0	5.500000e-01	0.000000e+00	0.0	5.600000e-01	0.000000e+00	0.0	5.700000e-01	0.000000e+00	0.0	5.800000e-01	0.000000e+00	0.0	5.900000e-01	0.000000e+00	0.0	6.000000e-01	0.000000e+00	0.0	6.100000e-01	0.000000e+00	0.0	6.200000e-01	0.000000e+00	0.0	6.300000e-01	0.000000e+00	0.0	6.400000e-01	0.000000e+00	0.0	6.500000e-01	0.000000e+00	0.0	6.600000e-01	0.000000e+00	0.0	6.700000e-01	0.000000e+00	0.0	6.800000e-01	0.000000e+00	0.0	6.900000e-01	0.000000e+00	0.0	7.000000e-01	0.000000e+00	0.0	7.100000e-01	0.000000e+00	0.0	7.200000e-01	0.000000e+00	0.0	7.300000e-01	0.000000e+00	0.0	7.400000e-01	0.000000e+00	0.0	7.500000e-01	0.000000e+00	0.0	7.600000e-01	0.000000e+00	0.0	7.700000e-01	0.000000e+00	0.0	7.800000e-01	0.000000e+00	0.0	7.900000e-01	0.000000e+00	0.0	8.000000e-01	0.000000e+00	0.0	8.100000e-01	0.000000e+00	0.0	8.200000e-01	0.000000e+00	0.0	8.300000e-01	0.000000e+00	0.0	8.400000e-01	0.000000e+00	0.0	8.500000e-01	0.000000e+00	0.0	8.600000e-01	0.000000e+00	0.0	8.700000e-01	0.000000e+00	0.0	8.800000e-01	0.000000e+00	0.0	8.900000e-01	0.000000e+00	0.0	9.000000e-01	0.000000e+00	0.0	9.100000e-01	0.000000e+00	0.0	9.200000e-01	0.000000e+00	0.0	9.300000e-01	0.000000e+00	0.0	9.400000e-01	0.000000e+00	0.0	9.500000e-01	0.000000e+00	0.0	9.600000e-01	0.000000e+00	0.0	9.700000e-01	0.000000e+00	0.0	9.800000e-01	0.000000e+00	0.0	9.900000e-01	0.000000e+00	0.0	1.000000e+00	0.000000e+00	0.0	0.000000e+00	1.000000e-02	0.0	1.000000e-02	1.000000e-02	0.0	2.000000e-02	1.000000e-02	0.0	3.000000e-02	1.000000e-02	0.0	4.000000e-02	1.000000e-02	0.0	5.000000e-02	1.000000e-02	0.0	6.000000e-02	1.000000e-02	0.0	7.000000e-02	1.000000e-02	0.0	8.000000e-02	1.000000e-02	0.0	9.000000e-02	1.000000e-02	0.0	1.000000e-01	1.000000e-02	0.0	1.100000e-01	1.000000e-02	0.0	1.200000e-01	1.000000e-02	0.0	1.300000e-01	1.000000e-02	0.0	1.400000e-01	1.000000e-02	0.0	1.500000e-01	1.000000e-02	0.0	1.600000e-01	1.000000e-02	0.0	1.700000e-01	1.000000e-02	0.0	1.800000e-01	1.000000e-02	0.0	1.900000e-01	1.000000e-02	0.0	2.000000e-01	1.000000e-02	0.0	2.100000e-01	1.000000e-02	0.0	2.200000e-01	1.000000e-02	0.0	2.300000e-01	1.000000e-02	0.0	2.400000e-01	1.000000e-02	0.0	2.500000e-01	1.000000e-02	0.0	2.600000e-01	1.000000e-02	0.0	2.700000e-01	1.000000e-02	0.0	2.800000e-01	1.000000e-02	0.0	2.900000e-01	1.000000e-02	0.0	3.000000e-01	1.000000e-02	0.0	3.100000e-01	1.000000e-02	0.0	3.200000e-01	1.000000e-02	0.0	3.300000e-01	1.000000e-02	0.0	3.400000e-01	1.000000e-02	0.0	3.500000e-01	1.000000e-02	0.0	3.600000e-01	1.000000e-02	0.0	3.700000e-01	1.000000e-02	0.0	3.800000e-01	1.000000e-02	0.0	3.900000e-01	1.000000e-02	0.0	4.000000e-01	1.000000e-02	0.0	4.100000e-01	1.000000e-02	0.0	4.200000e-01	1.000000e-02	0.0	4.300000e-01	1.000000e-02	0.0	4.400000e-01	1.000000e-02	0.0	4.500000e-01	1.000000e-02	0.0	4.600000e-01	1.000000e-02	0.0	4.700000e-01	1.000000e-02	0.0	4.800000e-01	1.000000e-02	0.0	4.900000e-01	1.000000e-02	0.0	5.000000e-01	1.000000e-02	0.0	5.100000e-01	1.000000e-02	0.0	5.200000e-01	1.000000e-02	0.0	5.300000e-01	1.000000e-02	0.0	5.400000e-01	1.000000e-02	0.0	5.500000e-01	1.000000e-02	0.0	5.600000e-01	1.000000e-02	0.0	5.700000e-01	1.000000e-02	0.0	5.800000e-01	1.000000e-02	0.0	5.900000e-01	1.000000e-02	0.0	6.000000e-01	1.000000e-02	0.0	6.100000e-01	1.000000e-02	0.0	6.200000e-01	1.000000e-02	0.0	6.300000e-01	1.000000e-02	0.0	6.400000e-01	1.000000e-02	0.0	6.500000e-01	1.000000e-02	0.0	6.600000e-01	1.000000e-02	0.0	6.700000e-01	1.000000e-02	0.0	6.800000e-01	1.000000e-02	0.0	6.900000e-01	1.000000e-02	0.0	7.000000e-01	1.000000e-02	0.0	7.100000e-01	1.000000e-02	0.0	7.200000e-01	1.000000e-02	0.0	7.300000e-01	1.000000e-02	0.0	7.400000e-01	1.000000e-02	0.0	7.500000e-01	1.000000e-02	0.0	7.600000e-01	1.000000e-02	0.0	7.700000e-01	1.000000e-02	0.0	7.800000e-01	1.000000e-02	0.0	7.900000e-01	1.000000e-02	0.0	8.000000e-01	1.000000e-02	0.0	8.100000e-01	1.000000e-02	0.0	8.200000e-01	1.000000e-02	0.0	8.300000e-01	1.000000e-02	0.0	8.400000e-01	1.000000e-02	0.0	8.500000e-01	1.000000e-02	0.0	8.600000e-01	1.000000e-02	0.0	8.700000e-01	1.000000e-02	0.0	8.800000e-01	1.000000e-02	0.0	8.900000e-01	1.000000e-02	0.0	9.000000e-01	1.000000e-02	0.0	9.100000e-01	1.000000e-02	0.0	9.200000e-01	1.000000e-02	0.0	9.300000e-01	1.000000e-02	0.0	9.400000e-01	1.000000e-02	0.0	9.500000e-01	1.000000e-02	0.0	9.600000e-01	1.000000e-02	0.0	9.700000e-01	1.000000e-02	0.0	9.800000e-01	1.000000e-02	0.0	9.900000e-01	1.000000e-02	0.0	1.000000e+00	1.000000e-02	0.0	0.000000e+00	2.000000e-02	0.0	1.000000e-02	2.000000e-02	0.0	2.000000e-02	2.000000e-02	0.0	3.000000e-02	2.000000e-02	0.0	4.000000e-02	2.000000e-02	0.0	5.000000e-02	2.000000e-02	0.0	6.000000e-02	2.000000e-02	0.0	7.000000e-02	2.000000e-02	0.0	8.000000e-02	2.000000e-02	0.0	9.000000e-02	2.000000e-02	0.0	1.000000e-01	2.000000e-02	0.0	1.100000e-01	2.000000e-02	0.0	1.200000e-01	2.000000e-02	0.0	1.300000e-01	2.000000e-02	0.0	1.400000e-01	2.000000e-02	0.0	1.500000e-01	2.000000e-02	0.0	1.600000e-01	2.000000e-02	0.0	1.700000e-01	2.000000e-02	0.0	1.800000e-01	2.000000e-02	0.0	1.900000e-01	2.000000e-02	0.0	2.000000e-01	2.000000e-02	0.0	2.100000e-01	2.000000e-02	0.0	2.200000e-01	2.000000e-02	0.0	2.300000e-01	2.000000e-02	0.0	2.400000e-01	2.000000e-02	0.0	2.500000e-01	2.000000e-02	0.0	2.600000e-01	2.000000e-02	0.0	2.700000e-01	2.000000e-02	0.0	2.800000e-01	2.000000e-02	0.0	2.900000e-01	2.000000e-02	0.0	3.000000e-01	2.000000e-02	0.0	3.100000e-01	2.000000e-02	0.0	3.200000e-01	2.000000e-02	0.0	3.300000e-01	2.000000e-02	0.0	3.400000e-01	2.000000e-02	0.0	3.500000e-01	2.000000e-02	0.0	3.600000e-01	2.000000e-02	0.0	3.700000e-01	2.000000e-02	0.0	3.800000e-01	2.000000e-02	0.0	3.900000e-01	2.000000e-02	0.0	4.000000e-01	2.000000e-02	0.0	4.100000e-01	2.000000e-02	0.0	4.200000e-01	2.000000e-02	0.0	4.300000e-01	2.000000e-02	0.0	4.400000e-01	2.000000e-02	0.0	4.500000e-01	2.000000e-02	0.0	4.600000e-01	2.000000e-02	0.0	4.700000e-01	2.000000e-02	0.0	4.800000e-01	2.000000e-02	0.0	4.900000e-01	2.000000e-02	0.0	5.000000e-01	2.000000e-02	0.0	5.100000e-01	2.000000e-02	0.0	5.200000e-01	2.000000e-02	0.0	5.300000e-01	2.000000e-02	0.0	5.400000e-01	2.000000e-02	0.0	5.500000e-01	2.000000e-02	0.0	5.600000e-01	2.000000e-02	0.0	5.700000e-01	2.000000e-02	0.0	5.800000e-01	2.000000e-02	0.0	5.900000e-01	2.000000e-02	0.0	6.000000e-01	2.000000e-02	0.0	6.100000e-01	2.000000e-02	0.0	6.200000e-01	2.000000e-02	0.0	6.300000e-01	2.000000e-02	0.0	6.400000e-01	2.000000e-02	0.0	6.500000e-01	2.000000e-02	0.0	6.600000e-01	2.000000e-02	0.0	6.700000e-01	2.000000e-02	0.0	6.800000e-01	2.000000e-02	0.0	6.900000e-01	2.000000e-02	0.0	7.000000e-01	2.000000e-02	0.0	7.100000e-01	2.000000e-02	0.0	7.200000e-01	2.000000e-02	0.0	7.300000e-01	2.000000e-02	0.0	7.400000e-01	2.000000e-02	0.0	7.500000e-01	2.000000e-02	0.0	7.600000e-01	2.000000e-02	0.0	7.700000e-01	2.000000e-02	0.0	7.800000e-01	2.000000e-02	0.0	7.900000e-01	2.000000e-02	0.0	8.000000e-01	2.000000e-02	0.0	8.100000e-01	2.000000e-02	0.0	8.200000e-01	2.000000e-02	0.0	8.300000e-01	2.000000e-02	0.0	8.400000e-01	2.000000e-02	0.0	8.500000e-01	2.000000e-02	0.0	8.600000e-01	2.000000e-02	0.0	8.700000e-01	2.000000e-02	0.0	8.800000e-01	2.000000e-02	0.0	8.900000e-01	2.000000e-02	0.0	9.000000e-01	2.000000e-02	0.0	9.100000e-01	2.000000e-02	0.0	9.200000e-01	2.000000e-02	0.0	9.300000e-01	2.000000e-02	0.0	9.400000e-01	2.000000e-02	0.0	9.500000e-01	2.000000e-02	0.0	9.600000e-01	2.000000e-02	0.0	9.700000e-01	2.000000e-02	0.0	9.800000e-01	2.000000e-02	0.0	9.900000e-01	2.000000e-02	0.0	1.000000e+00	2.000000e-02	0.0	0.000000e+00	3.000000e-02	0.0	1.000000e-02	3.000000e-02	0.0	2.000000e-02	3.000000e-02	0.0	3.000000e-02	3.000000e-02	0.0	4.000000e-02	3.000000e-02	0.0	5.000000e-02	3.000000e-02	0.0	6.000000e-02	3.000000e-02	0.0	7.000000e-02	3.000000e-02	0.0	8.000000e-02	3.000000e-02	0.0	9.000000e-02	3.000000e-02	0.0	1.000000e-01	3.000000e-02	0.0	1.100000e-01	3.000000e-02	0.0	1.200000e-01	3.000000e-02	0.0	1.300000e-01	3.000000e-02	0.0	1.400000e-01	3.000000e-02	0.0	1.500000e-01	3.000000e-02	0.0	1.600000e-01	3.000000e-02	0.0	1.700000e-01	3.000000e-02	0.0	1.800000e-01	3.000000e-02	0.0	1.900000e-01	3.000000e-02	0.0	2.000000e-01	3.000000e-02	0.0	2.100000e-01	3.000000e-02	0.0	2.200000e-01	3.000000e-02	0.0	2.300000e-01	3.000000e-02	0.0	2.400000e-01	3.000000e-02	0.0	2.500000e-01	3.000000e-02	0.0	2.600000e-01	3.000000
[...]
POINT_DATA 10201

SCALARS Height double 1
LOOKUP_TABLE default
9.989850e-01	9.990066e-01	9.989974e-01	9.989956e-01	9.989932e-01	9.989893e-01	9.989831e-01	9.989753e-01	9.989703e-01	9.989692e-01	9.989693e-01	9.989690e-01	9.989662e-01	9.989612e-01	9.989544e-01	9.989475e-01	9.989397e-01	9.989356e-01	9.989340e-01	9.989337e-01	9.989317e-01	9.989262e-01	9.989120e-01	9.988945e-01	9.988761e-01	9.988561e-01	9.988376e-01	9.988194e-01	9.988023e-01	9.987864e-01	9.987711e-01	9.987558e-01	9.987400e-01	9.987227e-01	9.987035e-01	9.986823e-01	9.986590e-01	9.986336e-01	9.986063e-01	9.985772e-01	9.985461e-01	9.985125e-01	9.984760e-01	9.984362e-01	9.983931e-01	9.983466e-01	9.982966e-01	9.982431e-01	9.981858e-01	9.981242e-01	9.980577e-01	9.979854e-01	9.979064e-01	9.978195e-01	9.977230e-01	9.976152e-01	9.974945e-01	9.973594e-01	9.972082e-01	9.970380e-01	9.968416e-01	9.966044e-01	9.962996e-01	9.958851e-01	9.953033e-01	9.944916e-01	9.934165e-01	9.921241e-01	9.908533e-01	9.900795e-01	9.905400e-01	9.930866e-01	9.981287e-01	1.004348e+00	1.009673e+00	1.013455e+00	1.016728e+00	1.020236e+00	1.023293e+00	1.025197e+00	1.025695e+00	1.024806e+00	1.022583e+00	1.019350e+00	1.015820e+00	1.012576e+00	1.008709e+00	1.003235e+00	9.969082e-01	9.918864e-01	9.894142e-01	9.890503e-01	9.898889e-01	9.911684e-01	9.924214e-01	9.934270e-01	9.941422e-01	9.946003e-01	9.948638e-01	9.949761e-01	9.950520e-01	9.989979e-01	9.990175e-01	9.990009e-01	9.989985e-01	9.989961e-01	9.989919e-01	9.989857e-01	9.989791e-01	9.989745e-01	9.989725e-01	9.989717e-01	9.989704e-01	9.989668e-01	9.989608e-01	9.989528e-01	9.989442e-01	9.989345e-01	9.989280e-01	9.989241e-01	9.989207e-01	9.989174e-01	9.989141e-01	9.989023e-01	9.988878e-01	9.988706e-01	9.988549e-01	9.988368e-01	9.988190e-01	9.988023e-01	9.987866e-01	9.987715e-01	9.987565e-01	9.987408e-01	9.987237e-01	9.987043e-01	9.986830e-01	9.986594e-01	9.986338e-01	9.986062e-01	9.985768e-01	9.985454e-01	9.985109e-01	9.984738e-01	9.984335e-01	9.983898e-01	9.983427e-01	9.982922e-01	9.982380e-01	9.981801e-01	9.981179e-01	9.980508e-01	9.979780e-01	9.978985e-01	9.978110e-01	9.977140e-01	9.976057e-01	9.974844e-01	9.973488e-01	9.971970e-01	9.970261e-01	9.968289e-01	9.965908e-01	9.962850e-01	9.958695e-01	9.952860e-01	9.944723e-01	9.933967e-01	9.920938e-01	9.907587e-01	9.898467e-01	9.901862e-01	9.929097e-01	9.982928e-01	1.004642e+00	1.009785e+00	1.013405e+00	1.016697e+00	1.020416e+00	1.023543e+00	1.025324e+00	1.025766e+00	1.024948e+00	1.022836e+00	1.019496e+00	1.015774e+00	1.012530e+00	1.008835e+00	1.003531e+00	9.970602e-01	9.916759e-01	9.890601e-01	9.888297e-01	9.897994e-01	9.911389e-01	9.924034e-01	9.934091e-01	9.941244e-01	9.945841e-01	9.948496e-01	9.949599e-01	9.950347e-01	9.990031e-01	9.990232e-01	9.990057e-01	9.990040e-01	9.990021e-01	9.989981e-01	9.989916e-01	9.989836e-01	9.989771e-01	9.989739e-01	9.989722e-01	9.989702e-01	9.989659e-01	9.989592e-01	9.989507e-01	9.989419e-01	9.989314e-01	9.989289e-01	9.989238e-01	9.989206e-01	9.989181e-01	9.989120e-01	9.989041e-01	9.988855e-01	9.988680e-01	9.988486e-01	9.988317e-01	9.988139e-01	9.987978e-01	9.987829e-01	9.987689e-01	9.987547e-01	9.987398e-01	9.987233e-01	9.987047e-01	9.986839e-01	9.986611e-01	9.986363e-01	9.986095e-01	9.985805e-01	9.985491e-01	9.985151e-01	9.984783e-01	9.984385e-01	9.983955e-01	9.983490e-01	9.982987e-01	9.982446e-01	9.981867e-01	9.981246e-01	9.980576e-01	9.979847e-01	9.979049e-01	9.978169e-01	9.977192e-01	9.976106e-01	9.974892e-01	9.973536e-01	9.972018e-01	9.970302e-01	9.968310e-01	9.965892e-01	9.962783e-01	9.958563e-01	9.952661e-01	9.944483e-01	9.933794e-01	9.920987e-01	9.907641e-01	9.897980e-01	9.901599e-01	9.930706e-01	9.985935e-01	1.004853e+00	1.009775e+00	1.013286e+00	1.016553e+00	1.020322e+00	1.023546e+00	1.025205e+00	1.025552e+00	1.024862e+00	1.022846e+00	1.019394e+00	1.015635e+00	1.012415e+00	1.008832e+00	1.003750e+00	9.973624e-01	9.918339e-01	9.890386e-01	9.887908e-01	9.898013e-01	9.911342e-01	9.923803e-01	9.933777e-01	9.940952e-01	9.945641e-01	9.948402e-01	9.949579e-01	9.950340e-01	9.989973e-01	9.990147e-01	9.990016e-01	9.990010e-01	9.990001e-01	9.989968e-01	9.989909e-01	9.989829e-01	9.989761e-01	9.989727e-01	9.989710e-01	9.989692e-01	9.989653e-01	9.989591e-01	9.989510e-01	9.989431e-01	9.989326e-01	9.989296e-01	9.989259e-01	9.989229e-01	9.989204e-01	9.989140e-01	9.989060e-01	9.988877e-01	9.988695e-01	9.988505e-01	9.988320e-01	9.988137e-01	9.987972e-01	9.987823e-01	9.987683e-01	9.987543e-01	9.987390e-01	9.987219e-01	9.987029e-01	9.986819e-01	9.986590e-01	9.986342e-01	9.986073e-01	9.985780e-01	9.985463e-01	9.985118e-01	9.984746e-01	9.984347e-01	9.983918e-01	9.983452e-01	9.982948e-01	9.982404e-01	9.981821e-01	9.981194e-01	9.980520e-01	9.979787e-01	9.978983e-01	9.978096e-01	9.977111e-01	9.976017e-01	9.974798e-01	9.973438e-01	9.971915e-01	9.970186e-01	9.968166e-01	9.965696e-01	9.962508e-01	9.958182e-01	9.952154e-01	9.943858e-01	9.933127e-01	9.920391e-01	9.906990e-01	9.897161e-01	9.901504e-01	9.931782e-01	9.987519e-01	1.004952e+00	1.009771e+00	1.013244e+00	1.016510e+00	1.020316e+00	1.023687e+00	1.025364e+00	1.025647e+00	1.025034e+00	1.022974e+00	1.019376e+00	1.015597e+00	1.012365e+00	1.008822e+00	1.003843e+00	9.975222e-01	9.919497e-01	9.890364e-01	9.887142e-01	9.897337e-01	9.910682e-01	9.923063e-01	9.933070e-01	9.940356e-01	9.945177e-01	9.948057e-01	9.949300e-01	9.950118e-01	9.989952e-01	9.990112e-01	9.989995e-01	9.990001e-01	9.989998e-01	9.989968e-01	9.989910e-01	9.989821e-01	9.989755e-01	9.989712e-01	9.989687e-01	9.989663e-01	9.989623e-01	9.989560e-01	9.989480e-01	9.989399e-01	9.989304e-01	9.989272e-01	9.989240e-01	9.989212e-01	9.989189e-01	9.989124e-01	9.989044e-01	9.988862e-01	9.988677e-01	9.988488e-01	9.988295e-01	9.988109e-01	9.987941e-01	9.987791e-01	9.987651e-01	9.987511e-01	9.987360e-01	9.987189e-01	9.986997e-01	9.986786e-01	9.986557e-01	9.986311e-01	9.986043e-01	9.985751e-01	9.985433e-01	9.985088e-01	9.984717e-01	9.984317e-01	9.983888e-01	9.983425e-01	9.982921e-01	9.982375e-01	9.981785e-01	9.981152e-01	9.980469e-01	9.979731e-01	9.978922e-01	9.978028e-01	9.977035e-01	9.975932e-01	9.974704e-01	9.973338e-01	9.971806e-01	9.970058e-01	9.968000e-01	9.965460e-01	9.962161e-01	9.957691e-01	9.951498e-01	9.943066e-01	9.932256e-01	9.919474e-01	9.906008e-01	9.896652e-01	9.902207e-01	9.933276e-01	9.988906e-01	1.005008e+00	1.009753e+00	1.013213e+00	1.016488e+00	1.020295e+00	1.023780e+00	1.025611e+00	1.025927e+00	1.025267e+00	1.023045e+00	1.019351e+00	1.015576e+00	1.012330e+00	1.008797e+00	1.003887e+00	9.976628e-01	9.921171e-01	9.891127e-01	9.886661e-01	9.896300e-01	9.909679e-01	9.922073e-01	9.932159e-01	9.939592e-01	9.944584e-01	9.947613e-01	9.948941e-01	9.949831e-01	9.989927e-01	9.990081e-01	9.989971e-01	9.989985e-01	9.989984e-01	9.989957e-01	9.989898e-01	9.989805e-01	9.989731e-01	9.989686e-01	9.989658e-01	9.989630e-01	9.989586e-01	9.989524e-01	9.989446e-01	9.989369e-01	9.989280e-01	9.989248e-01	9.989222e-01	9.989199e-01	9.989175e-01	9.989114e-01	9.989024e-01	9.988846e-01	9.988658e-01	9.988474e-01	9.988281e-01	9.988096e-01	9.987927e-01	9.987775e-01	9.987634e-01	9.987491e-01	9.987338e-01	9.987167e-01	9.986974e-01	9.986761e-01	9.986529e-01	9.986278e-01	9.986008e-01	9.985715e-01	9.985396e-01	9.985050e-01	9.984677e-01	9.984276e-01	9.983845e-01	9.983380e-01	9.982873e-01	9.982323e-01	9.981726e-01	9.981082e-01	9.980389e-01	9.979641e-01	9.978825e-01	9.977925e-01	9.976925e-01	9.975811e-01	9.974573e-01	9.973196e-01	9.971650e-01	9.969877e-01	9.967767e-01	9.965142e-01	9.961707e-01	9.957052e-01	9.950668e-01	9.942081e-01	9.931118e-01	9.918139e-01	9.904724e-01	9.896477e-01	9.903659e-01	9.935045e-01	9.989888e-01	1.005000e+00	1.009711e+00	1.013202e+00	1.016503e+00	1.020292e+00	1.023868e+00	1.025932e+00	1.026359e+00	1.025554e+00	1.023103e+00	1.019346e+00	1.015592e+00	1.012316e+00	1.008743e+00	1.003870e+00	9.977625e-01	9.923148e-01	9.892642e-01	9.886464e-01	9.894968e-01	9.908238e-01	9.920817e-01	9.931051e-01	9.938647e-01	9.943826e-01	9.947031e-01	9.948466e-01	9.949444e-01	9.989897e-01	9.990046e-01	9.989950e-01	9.989962e-01	9.989958e-01	9.989932e-01	9.989875e-01	9.989789e-01	9.989709e-01	9.989664e-01	9.989633e-01	9.989602e-01	9.989555e-01	9.989492e-01	9.989416e-01	9.989343e-01	9.989256e-01	9.989219e-01	9.989200e-01	9.989180e-01	9.989147e-01	9.989094e-01	9.988982e-01	9.988810e-01	9.988624e-01	9.988445e-01	9.988256e-01	9.988072e-01	9.987904e-01	9.987752e-01	9.987604e-01	9.987460e-01	9.987306e-01	9.987134e-01	9.986940e-01	9.986725e-01	9.986489e-01	9.986236e-01	9.985963e-01	9.985669e-01	9.985351e-01	9.985007e-01	9.984635e-01	9.984233e-01	9.983800e-01	9.983331e-01	9.982821e-01	9.982266e-01	9.981662e-01	9.981009e-01	9.980303e-01	9.979542e-01	9.978714e-01	9.977804e-01	9.976795e-01	9.975671e-01	9.974420e-01	9.973025e-01	9.971454e-01	9.969644e-01	9.967469e-01	9.964736e-01	9.961131e-01	9.956248e-01	9.949608e-01	9.940804e-01	9.929625e-01	9.916404e-01	9.903353e-01	9.896805e-01	9.905595e-01	9.936937e-01	9.990515e-01	1.004943e+00	1.009654e+00	1.013211e+00	1.016542e+00	1.020303e+00	1.023972e+00	1.026298e+00	1.026860e+00	1.025880e+00	1.023178e+00	1.019361e+00	1.015638e+00	1.012318e+00	1.008669e+00	1.003797e+00	9.978286e-01	9.925277e-01	9.894661e-01	9.886682e-01	9.893550e-01	9.906409e-01	9.919151e-01	9.929610e-01	9.937452e-01	9.942886e-01	9.946297e-01	9.947877e-01	9.948965e-01	9.989833e-01	9.989985e-01	9.989908e-01	9.989931e-01	9.989909e-01	9.989877e-01	9.989827e-01	9.989753e-01	9.989684e-01	9.989642e-01	9.989613e-01	9.989582e-01	9.989533e-01	9.989470e-01	9.989401e-01	9.989332e-01	9.989266e-01	9.989200e-01	9.989194e-01	9.989165e-01	9.989125e-01	9.989070e-01	9.988924e-01	9.988769e-01	9.988590e-01	9.988411e-01	9.988222e-01	9.988041e-01	9.987873e-01	9.987714e-01	9.987565e-01	9.987413e-01	9.987259e-01	9.987087e-01	9.986894e-01	9.986678e-01	9.986441e-01	9.986184e-01	9.985907e-01	9.985610e-01	9.985291e-01	9.984946e-01	9.984575e-01	9.984172e-01	9.983735e-01	9.983261e-01	9.982746e-01	9.982187e-01	9.981579e-01	9.980920e-01	9.980206e-01	9.979432e-01	9.978592e-01	9.977671e-01	9.976653e-01	9.975521e-01	9.974256e-01	9.972840e-01	9.971235e-01	9.969369e-01	9.967114e-01	9.964237e-01	9.960442e-01	9.955304e-01	9.948376e-01	9.939237e-01	9.927665e-01	9.914303e-01	9.902063e-01	9.897666e-01	9.908013e-01	9.939072e-01	9.991019e-01	1.004857e+00	1.009588e+00	1.013234e+00	1.016599e+00	1.020333e+00	1.024104e+00	1.026692e+00	1.027385e+00	1.026238e+00	1.023287e+00	1.019399e+00	1.015702e+00	1.012331e+00	1.008579e+00	1.003692e+00	9.978827e-01	9.927694e-01	9.897185e-01	9.887421e-01	9.892165e-01	9.904166e-01	9.917045e-01	9.927870e-01	9.936052e-01	9.941767e-01	9.945431e-01	9.947153e-01	9.948364e-01	9.989789e-01	9.989955e-01	9.989877e-01	9.989902e-01	9.989865e-01	9.989819e-01	9.989764e-01	9.989701e-01	9.989649e-01	9.989612e-01	9.989586e-01	9.989550e-01	9.989502e-01	9.989441e-01	9.989378e-01	9.989316e-01	9.989255e-01	9.989203e-01	9.989165e-01	9.989160e-01	9.989106e-01	9.989022e-01	9.988887e-01	9.988725e-01	9.988563e-01	9.988377e-01	9.988192e-01	9.988013e-01	9.987842e-01	9.987678e-01	9.987519e-01	9.987366e-01	9.987207e-01	9.987037e-01	9.986842e-01	9.986627e-01	9.986389e-01	9.986130e-01	9.985850e-01	9.985549e-01	9.985227e-01	9.984880e-01	9.984506e-01	9.984099e-01	9.983655e-01	9.983172e-01	9.982648e-01	9.982082e-01	9.981468e-01	9.980803e-01	9.980080e-01	9.979296e-01	9.978443e-01	9.977510e-01	9.976484e-01	9.975343e-01	9.974066e-01	9.972625e-01	9.970980e-01	9.969047e-01	9.966685e-01	9.963659e-01	9.959627e-01	9.954193e-01	9.946912e-01	9.937335e-01	9.925314e-01	9.911981e-01	9.901026e-01	9.899071e-01	9.910904e-01	9.941538e-01	9.991548e-01	1.004761e+00	1.009520e+00	1.013266e+00	1.016672e+00	1.020389e+00	1.024260e+00	1.027091e+00	1.027914e+00	1.026610e+00	1.023428e+00	1.019464e+00	1.015780e+00	1.012351e+00	1.008485e+00	1.003578e+00	9.979436e-01	9.930392e-01	9.900244e-01	9.888677e-01	9.890973e-01	9.901669e-01	9.914517e-01	9.925757e-01	9.934370e-01	9.940439e-01	9.944383e-01	9.946295e-01	9.947627e-01	9.989769e-01	9.989913e-01	9.989852e-01	9.989867e-01	9.989816e-01	9.989757e-01	9.989702e-01	9.989656e-01	9.989614e-01	9.989586e-01	9.989552e-01	9.989516e-01	9.989467e-01	9.989407e-01	9.989350e-01	9.989293e-01	9.989238e-01	9.989190e-01	9.989147e-01	9.989110e-01	9.989062e-01	9.988972e-01	9.988838e-01	9.988700e-01	9.988520e-01	9.988343e-01	9.988164e-01	9.987988e-01	9.987816e-01	9.987645e-01	9.987481e-01	9.987319e-01	9.987156e-01	9.986980e-01	9.986786e-01	9.986571e-01	9.986333e-01	9.986072e-01	9.985788e-01	9.985484e-01	9.985158e-01	9.984807e-01	9.984427e-01	9.984014e-01	9.983563e-01	9.983073e-01	9.982541e-01	9.981965e-01	9.981342e-01	9.980668e-01	9.979935e-01	9.979139e-01	9.978273e-01	9.977326e-01	9.976285e-01	9.975130e-01	9.973834e-01	9.972364e-01	9.970669e-01	9.968660e-01	9.966169e-01	9.962947e-01	9.958657e-01	9.952888e-01	9.945166e-01	9.935028e-01	9.922554e-01	9.909539e-01	9.900440e-01	9.900959e-01	9.914140e-01	9.944286e-01	9.992236e-01	1.004671e+00	1.009457e+00	1.013306e+00	1.016761e+00	1.020472e+00	1.024430e+00	1.027478e+00	1.028422e+00	1.026977e+00	1.023591e+00	1.019558e+00	1.015873e+00	1.012374e+00	1.008395e+00	1.003471e+00	9.980181e-01	9.933351e-01	9.903690e-01	9.890385e-01	9.890097e-01	9.899005e-01	9.911558e-01	9.923224e-01	9.932361e-01	9.938872e-01	9.943155e-01	9.945269e-01	9.946743e-01	9.989749e-01	9.989869e-01	9.989815e-01	9.989819e-01	9.989757e-01	9.989694e-01	9.989640e-01	9.989607e-01	9.989580e-01	9.989550e-01	9.989521e-01	9.989479e-01	9.989432e-01	9.989380e-01	9.989322e-01	9.989268e-01	9.989214e-01	9.989161e-01	9.989107e-01	9.989057e-01	9.988994e-01	9.988903e-01	9.988783e-01	9.988631e-01	9.988468e-01	9.988299e-01	9.988128e-01	9.987956e-01	9.987784e-01	9.987611e-01	9.987440e-01	9.987271e-01	9.987102e-01	9.986926e-01	9.986729e-01	9.986512e-01	9.986272e-01	9.986008e-01	9.985720e-01	9.985411e-01	9.985078e-01	9.984720e-01	9.984332e-01	9.983911e-01	9.983454e-01	9.982957e-01	9.982419e-01	9.981835e-01	9.981203e-01	9.980518e-01	9.979776e-01	9.978970e-01	9.978092e-01	9.977131e-01	9.976072e-01	9.974893e-01	9.973567e-01	9.972057e-01	9.970299e-01	9.968188e-01	9.965545e-01	9.962103e-01	9.957510e-01	9.951337e-01	9.943067e-01	9.932279e-01	9.919426e-01	9.907158e-01	9.900528e-01	9.903450e-01	9.917630e-01	9.947298e-01	9.993237e-01	1.004608e+00	1.009406e+00	1.013355e+00	1.016873e+00	1.020584e+00	1.024602e+00	1.027831e+00	1.028879e+00	1.027310e+00	1.023758e+00	1.019680e+00	1.015984e+00	1.012405e+00	1.008316e+00	1.003395e+00	9.981246e-01	9.936543e-01	9.907415e-01	9.892688e-01	9.889710e-01	9.896320e-01	9.908199e-01	9.920245e-01	9.929994e-01	9.937042e-01	9.941723e-01	9.944065e-01	9.945680e-01	9.989718e-01	9.989817e-01	9.989758e-01	9.989756e-01	9.989693e-01	9.989629e-01	9.989583e-01	9.989559e-01	9.989541e-01	9.989515e-01	9.989483e-01	9.989445e-01	9.989398e-01	9.989352e-01	9.989304e-01	9.989248e-01	9.989193e-01	9.989137e-01	9.989076e-01	9.989015e-01	9.988935e-01	9.988836e-01	9.988708e-01	9.988568e-01	9.988411e-01	9.988252e-01	9.988087e-01	9.987922e-01	9.987744e-01	9.987565e-01	9.987391e-01	9.987218e-01	9.987044e-01	9.986867e-01	9.986668e-01	9.986449e-01	9.986206e-01	9.985938e-01	9.985646e-01	9.985330e-01	9.984988e-01	9.984618e-01	9.984219e-01	9.983788e-01	9.983322e-01	9.982820e-01	9.982276e-01	9.981686e-01	9.981046e-01	9.980352e-01	9.979600e-01	9.978785e-01	9.977897e-01	9.976922e-01	9.975842e-01	9.974633e-01	9.973268e-01	9.971702e-01	9.969868e-01	9.967638e-01	9.964814e-01	9.961110e-01	9.956159e-01	9.949489e-01	9.940549e-01	9.929043e-01	9.916039e-01	9.905099e-01	9.901330e-01	9.906317e-01	9.921321e-01	9.950649e-01	9.994700e-01	1.004584e+00	1.009378e+00	1.013419e+00	1.017008e+00	1.020718e+00	1.024762e+00	1.028123e+00	1.029251e+00	1.027584e+00	1.023914e+00	1.019827e+00	1.016117e+00	1.012446e+00	1.008262e+00	1.003355e+00	9.982765e-01	9.940040e-01	9.911303e-01	9.895548e-01	9.890001e-01	9.893810e-01	9.904492e-01	9.916786e-01	9.927226e-01	9.934921e-01	9.940073e-01	9.942668e-01	9.944438e-01	9.989666e-01	9.989750e-01	9.989681e-01	9.989679e-01	9.989621e-01	9.989563e-01	9.989524e-01	9.989507e-01	9.989492e-01	9.989474e-01	9.989443e-01	9.989407e-01	9.989369e-01	9.989323e-01	9.989278e-01	9.989229e-01	9.989164e-01	9.989097e-01	9.989024e-01	9.988940e-01	9.988849e-01	9.988752e-01	9.988636e-01	9.988499e-01	9.988353e-01	9.988202e-01	9.988042e-01	9.987867e-01	9.987687e-01	9.987504e-01	9.987325e-01	9.987152e-01	9.986978e-01	9.986795e-01	9.986596e-01	9.986376e-01	9.986131e-01	9.985861e-01	9.985564e-01	9.985241e-01	9.984890e-01	9.984509e-01	9.984098e-01	9.983656e-01	9.983180e-01	9.982667e-01	9.982115e-01	9.981518e-01	9.980871e-01	9.980169e-01	9.979408e-01	9.978582e-01	9.977680e-01	9.976687e-01	9.975582e-01	9.974338e-01	9.972925e-01	9.971297e-01	9.969370e-01	9.966999e-01	9.963962e-01	9.959952e-01	9.954568e-01	9.947291e-01	9.937551e-01	9.925318e-01	9.912572e-01	9.903705e-01	9.902726e-01	9.909365e-01	9.925234e-01	9.954411e-01	9.996802e-01	1.004620e+00	1.009385e+00	1.013502e+00	1.017164e+00	1.020867e+00	1.024889e+00	1.028325e+00	1.029502e+00	1.027764e+00	1.024042e+00	1.019996e+00	1.016271e+00	1.012511e+00	1.008243e+00	1.003381e+00	9.984905e-01	9.943890e-01	9.915344e-01	9.898684e-01	9.891013e-01	9.891788e-01	9.900561e-01	9.912806e-01	9.923993e-01	9.932461e-01	9.938177e-01	9.941063e-01	9.943004e-01	9.989600e-01	9.989671e-01	9.989593e-01	9.989595e-01	9.989547e-01	9.989500e-01	9.989467e-01	9.989454e-01	9.989441e-01	9.989419e-01	9.989398e-01	9.989368e-01	9.989332e-01	9.989293e-01	9.989245e-01	9.989193e-01	9.989130e-01	9.989054e-01	9.988968e-01	9.988874e-01	9.988769e-01	9.988668e-01	9.988556e-01	9.988431e-01	9.988295e-01	9.988151e-01	9.987984e-01	9.987809e-01	9.987619e-01	9.987433e-01	9.987255e-01	9.987072e-01	9.986893e-01	9.986709e-01	9.986508e-01	9.986286e-01	9.986040e-01	9.985767e-01	9.985467e-01	9.985138e-01	9.984780e-01	9.984392e-01	9.983973e-01	9.983520e-01	9.983033e-01	9.982509e-01	9.981946e-01	9.981340e-01	9.980685e-01	9.979976e-01	9.979204e-01	9.978363e-01	9.977439e-01	9.976417e-01	9.975278e-01	9.973995e-01	9.972530e-01	9.970829e-01	9.968793e-01	9.966256e-01	9.962970e-01	9.958597e-01	9.952687e-01	9.944664e-01	9.934000e-01	9.921134e-01	9.909353e-01	9.903318e-01	9.904757e-01	9.912468e-01	9.929408e-01	9.958721e-01	9.999699e-01	1.004731e+00	1.009437e+00	1.013610e+00	1.017333e+00	1.021026e+00	1.024963e+00	1.028400e+00	1.029592e+00	1.027822e+00	1.024130e+00	1.020175e+00	1.016444e+00	1.012604e+00	1.008276e+00	1.003485e+00	9.987839e-01	9.948230e-01	9.919560e-01	9.901843e-01	9.892644e-01	9.890636e-01	9.896665e-01	9.908283e-01	9.920174e-01	9.929567e-01	9.935979e-01	9.939216e-01	9.941356e-01	9.989521e-01	9.989588e-01	9.989500e-01	9.989510e-01	9.989472e-01	9.989438e-01	9.989411e-01	9.989402e-01	9.989388e-01	9.989365e-01	9.989344e-01	9.989325e-01	9.989293e-01	9.989253e-01	9.989202e-01	9.989148e-01	9.989082e-01	9.988998e-01	9.988900e-01	9.988791e-01	9.988674e-01	9.988571e-01	9.988468e-01	9.988354e-01	9.988233e-01	9.988085e-01	9.987921e-01	9.987744e-01	9.987564e-01	9.987363e-01	9.987173e-01	9.986986e-01	9.986802e-01	9.986613e-01	9.986409e-01	9.986183e-01	9.985933e-01	9.985656e-01	9.985350e-01	9.985016e-01	9.984653e-01	9.984261e-01	9.983835e-01	9.983376e-01	9.982879e-01	9.982345e-01	9.981772e-01	9.981158e-01	9.980495e-01	9.979776e-01	9.978991e-01	9.978128e-01	9.977176e-01	9.976117e-01	9.974933e-01	9.973601e-01	9.972079e-01	9.970297e-01	9.968132e-01	9.965394e-01	9.961810e-01	9.957001e-01	9.950451e-01	9.941511e-01	9.929787e-01	9.916679e-01	9.906833e-01	9.903939e-01	9.906920e-01	9.915654e-01	9.933942e-01	9.963711e-01	1.000354e+00	1.004934e+00	1.009547e+00	1.013746e+00	1.017514e+00	1.021177e+00	1.024978e+00	1.028317e+00	1.029482e+00	1.027733e+00	1.024162e+00	1.020348e+00	1.016635e+00	1.012731e+00	1.008369e+00	1.003685e+00	9.991728e-01	9.953210e-01	9.924046e-01	9.904981e-01	9.894614e-01	9.890518e-01	9.893335e-01	9.903318e-01	9.915630e-01	9.926082e-01	9.933372e-01	9.937062e-01	9.939449e-01	9.989453e-01	9.989508e-01	9.989403e-01	9.989427e-01	9.989401e-01	9.989378e-01	9.989357e-01	9.989348e-01	9.989334e-01	9.989312e-01	9.989287e-01	9.989270e-01	9.989245e-01	9.989204e-01	9.989154e-01	9.989078e-01	9.989018e-01	9.988939e-01	9.988822