# vtk DataFile Version 3.0
vtk output
ASCII
DATASET STRUCTURED_GRID
DIMENSIONS 101 101 1
POINTS 10201 double
0.000000e+00	0.000000e+00	0.0	1.000000e-02	0.000000e+00	0.0	2.000000e-02	0.000000e+00	0.0	3.000000e-02	0.000000e+00	0.0	4.000000e-02	0.000000e+00	0.0	5.000000e-02	0.000000e+00	0.0	6.000000e-02	0.000000e+00	0.0	7.000000e-02	0.000000e+00	0.0	8.000000e-02	0.000000e+00	0.0	9.000000e-02	0.000000e+00	0.0	1.000000e-01	0.000000e+00	0.0	1.100000e-01	0.000000e+00	0.0	1.200000e-01	0.000000e+00	0.0	1.300000e-01	0.000000e+00	0.0	1.400000e-01	0.000000e+00	0.0	1.500000e-01	0.000000e+00	0.0	1.600000e-01	0.000000e+00	0.0	1.700000e-01	0.000000e+00	0.0	1.800000e-01	0.000000e+00	0.0	1.900000e-01	0.000000e+00	0.0	2.000000e-01	0.000000e+00	0.0	2.100000e-01	0.000000e+00	0.0	2.200000e-01	0.000000e+00	0.0	2.300000e-01	0.000000e+00	0.0	2.400000e-01	0.000000e+00	0.0	2.500000e-01	0.000000e+00	0.0	2.600000e-01	0.000000e+00	0.0	2.700000e-01	0.000000e+00	0.0	2.800000e-01	0.000000e+00	0.0	2.900000e-01	0.000000e+00	0.0	3.000000e-01	0.000000e+00	0.0	3.100000e-01	0.000000e+00	0.0	3.200000e-01	0.000000e+00	0.0	3.300000e-01	0.000000e+00	0.0	3.400000e-01	0.000000e+00	0.0	3.500000e-01	0.000000e+00	0.0	3.600000e-01	0.000000e+00	0.0	3.700000e-01	0.000000e+00	0.0	3.800000e-01	0.000000e+00	0.0	3.900000e-01	0.000000e+00	0.0	4.000000e-01	0.000000e+00	0.0	4.100000e-01	0.000000e+00	0.0	4.200000e-01	0.000000e+00	0.0	4.300000e-01	0.000000e+00	0.0	4.400000e-01	0.000000e+00	0.0	4.500000e-01	0.000000e+00	0.0	4.600000e-01	0.000000e+00	0.0	4.700000e-01	0.000000e+00	0.0	4.800000e-01	0.000000e+00	0.0	4.900000e-01	0.000000e+00	0.0	5.000000e-01	0.000000e+00	0.0	5.100000e-01	0.000000e+00	0.0	5.200000e-01	0.000000e+00	0.0	5.300000e-01	0.000000e+00	0.0	5.400000e-01	0.000000e+00	0.0	5.500000e-01	0.000000e+00	0.0	5.600000e-01	0.000000e+00	0.0	5.700000e-01	0.000000e+00	0.0	5.800000e-01	0.000000e+00	0.0	5.900000e-01	0.000000e+00	0.0	6.000000e-01	0.000000e+00	0.0	6.100000e-01	0.000000e+00	0.0	6.200000e-01	0.000000e+00	0.0	6.300000e-01	0.000000e+00	0.0	6.400000e-01	0.000000e+00	0.0	6.500000e-01	0.000000e+00	0.0	6.600000e-01	0.000000e+00	0.0	6.700000e-01	0.000000e+00	0.0	6.800000e-01	0.000000e+00	0.0	6.900000e-01	0.000000e+00	0.0	7.000000e-01	0.000000e+00	0.0	7.100000e-01	0.000000e+00	0.0	7.200000e-01	0.000000e+00	0.0	7.300000e-01	0.000000e+00	0.0	7.400000e-01	0.000000e+00	0.0	7.500000e-01	0.000000e+00	0.0	7.600000e-01	0.000000e+00	0.0	7.700000e-01	0.000000e+00	0.0	7.800000e-01	0.000000e+00	0.0	7.900000e-01	0.000000e+00	0.0	8.000000e-01	0.000000e+00	0.0	8.100000e-01	0.000000e+00	0.0	8.200000e-01	0.000000e+00	0.0	8.300000e-01	0.000000e+00	0.0	8.400000e-01	0.000000e+00	0.0	8.500000e-01	0.000000e+00	0.0	8.600000e-01	0.000000e+00	0.0	8.700000e-01	0.000000e+00	0.0	8.800000e-01	0.000000e+00	0.0	8.900000e-01	0.000000e+00	0.0	9.000000e-01	0.000000e+00	0.0	9.100000e-01	0.000000e+00	0.0	9.200000e-01	0.000000e+00	0.0	9.300000e-01	0.000000e+00	0.0	9.400000e-01	0.000000e+00	0.0	9.500000e-01	0.000000e+00	0.0	9.600000e-01	0.000000e+00	0.0	9.700000e-01	0.000000e+00	0.0	9.800000e-01	0.000000e+00	0.0	9.900000e-01	0.000000e+00	0.0	1.000000e+00	0.000000e+00	0.0	0.000000e+00	1.000000e-02	0.0	1.000000e-02	1.000000e-02	0.0	2.000000e-02	1.000000e-02	0.0	3.000000e-02	1.000000e-02	0.0	4.000000e-02	1.000000e-02	0.0	5.000000e-02	1.000000e-02	0.0	6.000000e-02	1.000000e-02	0.0	7.000000e-02	1.000000e-02	0.0	8.000000e-02	1.000000e-02	0.0	9.000000e-02	1.000000e-02	0.0	1.000000e-01	1.000000e-02	0.0	1.100000e-01	1.000000e-02	0.0	1.200000e-01	1.000000e-02	0.0	1.300000e-01	1.000000e-02	0.0	1.400000e-01	1.000000e-02	0.0	1.500000e-01	1.000000e-02	0.0	1.600000e-01	1.000000e-02	0.0	1.700000e-01	1.000000e-02	0.0	1.800000e-01	1.000000e-02	0.0	1.900000e-01	1.000000e-02	0.0	2.000000e-01	1.000000e-02	0.0	2.100000e-01	1.000000e-02	0.0	2.200000e-01	1.000000e-02	0.0	2.300000e-01	1.000000e-02	0.0	2.400000e-01	1.000000e-02	0.0	2.500000e-01	1.000000e-02	0.0	2.600000e-01	1.000000e-02	0.0	2.700000e-01	1.000000e-02	0.0	2.800000e-01	1.000000e-02	0.0	2.900000e-01	1.000000e-02	0.0	3.000000e-01	1.000000e-02	0.0	3.100000e-01	1.000000e-02	0.0	3.200000e-01	1.000000e-02	0.0	3.300000e-01	1.000000e-02	0.0	3.400000e-01	1.000000e-02	0.0	3.500000e-01	1.000000e-02	0.0	3.600000e-01	1.000000e-02	0.0	3.700000e-01	1.000000e-02	0.0	3.800000e-01	1.000000e-02	0.0	3.900000e-01	1.000000e-02	0.0	4.000000e-01	1.000000e-02	0.0	4.100000e-01	1.000000e-02	0.0	4.200000e-01	1.000000e-02	0.0	4.300000e-01	1.000000e-02	0.0	4.400000e-01	1.000000e-02	0.0	4.500000e-01	1.000000e-02	0.0	4.600000e-01	1.000000e-02	0.0	4.700000e-01	1.000000e-02	0.0	4.800000e-01	1.000000e-02	0.0	4.900000e-01	1.000000e-02	0.0	5.000000e-01	1.000000e-02	0.0	5.100000e-01	1.000000e-02	0.0	5.200000e-01	1.000000e-02	0.0	5.300000e-01	1.000000e-02	0.0	5.400000e-01	1.000000e-02	0.0	5.500000e-01	1.000000e-02	0.0	5.600000e-01	1.000000e-02	0.0	5.700000e-01	1.000000e-02	0.0	5.800000e-01	1.000000e-02	0.0	5.900000e-01	1.000000e-02	0.0	6.000000e-01	1.000000e-02	0.0	6.100000e-01	1.000000e-02	0.0	6.200000e-01	1.000000e-02	0.0	6.300000e-01	1.000000e-02	0.0	6.400000e-01	1.000000e-02	0.0	6.500000e-01	1.000000e-02	0.0	6.600000e-01	1.000000e-02	0.0	6.700000e-01	1.000000e-02	0.0	6.800000e-01	1.000000e-02	0.0	6.900000e-01	1.000000e-02	0.0	7.000000e-01	1.000000e-02	0.0	7.100000e-01	1.000000e-02	0.0	7.200000e-01	1.000000e-02	0.0	7.300000e-01	1.000000e-02	0.0	7.400000e-01	1.000000e-02	0.0	7.500000e-01	1.000000e-02	0.0	7.600000e-01	1.000000e-02	0.0	7.700000e-01	1.000000e-02	0.0	7.800000e-01	1.000000e-02	0.0	7.900000e-01	1.000000e-02	0.0	8.000000e-01	1.000000e-02	0.0	8.100000e-01	1.000000e-02	0.0	8.200000e-01	1.000000e-02	0.0	8.300000e-01	1.000000e-02	0.0	8.400000e-01	1.000000e-02	0.0	8.500000e-01	1.000000e-02	0.0	8.600000e-01	1.000000e-02	0.0	8.700000e-01	1.000000e-02	0.0	8.800000e-01	1.000000e-02	0.0	8.900000e-01	1.000000e-02	0.0	9.000000e-01	1.000000e-02	0.0	9.100000e-01	1.000000e-02	0.0	9.200000e-01	1.000000e-02	0.0	9.300000e-01	1.000000e-02	0.0	9.400000e-01	1.000000e-02	0.0	9.500000e-01	1.000000e-02	0.0	9.600000e-01	1.000000e-02	0.0	9.700000e-01	1.000000e-02	0.0	9.800000e-01	1.000000e-02	0.0	9.900000e-01	1.000000e-02	0.0	1.000000e+00	1.000000e-02	0.0	0.000000e+00	2.000000e-02	0.0	1.000000e-02	2.000000e-02	0.0	2.000000e-02	2.000000e-02	0.0	3.000000e-02	2.000000e-02	0.0	4.000000e-02	2.000000e-02	0.0	5.000000e-02	2.000000e-02	0.0	6.000000e-02	2.000000e-02	0.0	7.000000e-02	2.000000e-02	0.0	8.000000e-02	2.000000e-02	0.0	9.000000e-02	2.000000e-02	0.0	1.000000e-01	2.000000e-02	0.0	1.100000e-01	2.000000e-02	0.0	1.200000e-01	2.000000e-02	0.0	1.300000e-01	2.000000e-02	0.0	1.400000e-01	2.000000e-02	0.0	1.500000e-01	2.000000e-02	0.0	1.600000e-01	2.000000e-02	0.0	1.700000e-01	2.000000e-02	0.0	1.800000e-01	2.000000e-02	0.0	1.900000e-01	2.000000e-02	0.0	2.000000e-01	2.000000e-02	0.0	2.100000e-01	2.000000e-02	0.0	2.200000e-01	2.000000e-02	0.0	2.300000e-01	2.000000e-02	0.0	2.400000e-01	2.000000e-02	0.0	2.500000e-01	2.000000e-02	0.0	2.600000e-01	2.000000e-02	0.0	2.700000e-01	2.000000e-02	0.0	2.800000e-01	2.000000e-02	0.0	2.900000e-01	2.000000e-02	0.0	3.000000e-01	2.000000e-02	0.0	3.100000e-01	2.000000e-02	0.0	3.200000e-01	2.000000e-02	0.0	3.300000e-01	2.000000e-02	0.0	3.400000e-01	2.000000e-02	0.0	3.500000e-01	2.000000e-02	0.0	3.600000e-01	2.000000e-02	0.0	3.700000e-01	2.000000e-02	0.0	3.800000e-01	2.000000e-02	0.0	3.900000e-01	2.000000e-02	0.0	4.000000e-01	2.000000e-02	0.0	4.100000e-01	2.000000e-02	0.0	4.200000e-01	2.000000e-02	0.0	4.300000e-01	2.000000e-02	0.0	4.400000e-01	2.000000e-02	0.0	4.500000e-01	2.000000e-02	0.0	4.600000e-01	2.000000e-02	0.0	4.700000e-01	2.000000e-02	0.0	4.800000e-01	2.000000e-02	0.0	4.900000e-01	2.000000e-02	0.0	5.000000e-01	2.000000e-02	0.0	5.100000e-01	2.000000e-02	0.0	5.200000e-01	2.000000e-02	0.0	5.300000e-01	2.000000e-02	0.0	5.400000e-01	2.000000e-02	0.0	5.500000e-01	2.000000e-02	0.0	5.600000e-01	2.000000e-02	0.0	5.700000e-01	2.000000e-02	0.0	5.800000e-01	2.000000e-02	0.0	5.900000e-01	2.000000e-02	0.0	6.000000e-01	2.000000e-02	0.0	6.100000e-01	2.000000e-02	0.0	6.200000e-01	2.000000e-02	0.0	6.300000e-01	2.000000e-02	0.0	6.400000e-01	2.000000e-02	0.0	6.500000e-01	2.000000e-02	0.0	6.600000e-01	2.000000e-02	0.0	6.700000e-01	2.000000e-02	0.0	6.800000e-01	2.000000e-02	0.0	6.900000e-01	2.000000e-02	0.0	7.000000e-01	2.000000e-02	0.0	7.100000e-01	2.000000e-02	0.0	7.200000e-01	2.000000e-02	0.0	7.300000e-01	2.000000e-02	0.0	7.400000e-01	2.000000e-02	0.0	7.500000e-01	2.000000e-02	0.0	7.600000e-01	2.000000e-02	0.0	7.700000e-01	2.000000e-02	0.0	7.800000e-01	2.000000e-02	0.0	7.900000e-01	2.000000e-02	0.0	8.000000e-01	2.000000e-02	0.0	8.100000e-01	2.000000e-02	0.0	8.200000e-01	2.000000e-02	0.0	8.300000e-01	2.000000e-02	0.0	8.400000e-01	2.000000e-02	0.0	8.500000e-01	2.000000e-02	0.0	8.600000e-01	2.000000e-02	0.0	8.700000e-01	2.000000e-02	0.0	8.800000e-01	2.000000e-02	0.0	8.900000e-01	2.000000e-02	0.0	9.000000e-01	2.000000e-02	0.0	9.100000e-01	2.000000e-02	0.0	9.200000e-01	2.000000e-02	0.0	9.300000e-01	2.000000e-02	0.0	9.400000e-01	2.000000e-02	0.0	9.500000e-01	2.000000e-02	0.0	9.600000e-01	2.000000e-02	0.0	9.700000e-01	2.000000e-02	0.0	9.800000e-01	2.000000e-02	0.0	9.900000e-01	2.000000e-02	0.0	1.000000e+00	2.000000e-02	0.0	0.000000e+00	3.000000e-02	0.0	1.000000e-02	3.000000e-02	0.0	2.000000e-02	3.000000e-02	0.0	3.000000e-02	3.000000e-02	0.0	4.000000e-02	3.000000e-02	0.0	5.000000e-02	3.000000e-02	0.0	6.000000e-02	3.000000e-02	0.0	7.000000e-02	3.000000e-02	0.0	8.000000e-02	3.000000e-02	0.0	9.000000e-02	3.000000e-02	0.0	1.000000e-01	3.000000e-02	0.0	1.100000e-01	3.000000e-02	0.0	1.200000e-01	3.000000e-02	0.0	1.300000e-01	3.000000e-02	0.0	1.400000e-01	3.000000e-02	0.0	1.500000e-01	3.000000e-02	0.0	1.600000e-01	3.000000e-02	0.0	1.700000e-01	3.000000e-02	0.0	1.800000e-01	3.000000e-02	0.0	1.900000e-01	3.000000e-02	0.0	2.000000e-01	3.000000e-02	0.0	2.100000e-01	3.000000e-02	0.0	2.200000e-01	3.000000e-02	0.0	2.300000e-01	3.000000e-02	0.0	2.400000e-01	3.000000e-02	0.0	2.500000e-01	3.000000e-02	0.0	2.600000e-01	3.000000
[...]
POINT_DATA 10201

SCALARS Height double 1
LOOKUP_TABLE default
9.993364e-01	9.993409e-01	9.993513e-01	9.993533e-01	9.993585e-01	9.993608e-01	9.993609e-01	9.993568e-01	9.993528e-01	9.993503e-01	9.993470e-01	9.993429e-01	9.993389e-01	9.993360e-01	9.993347e-01	9.993350e-01	9.993368e-01	9.993401e-01	9.993418e-01	9.993428e-01	9.993424e-01	9.993368e-01	9.993304e-01	9.993231e-01	9.993169e-01	9.993100e-01	9.993049e-01	9.992999e-01	9.992945e-01	9.992882e-01	9.992810e-01	9.992733e-01	9.992655e-01	9.992579e-01	9.992500e-01	9.992423e-01	9.992341e-01	9.992250e-01	9.992142e-01	9.992027e-01	9.991932e-01	9.991884e-01	9.991871e-01	9.991955e-01	9.992486e-01	9.994260e-01	9.999218e-01	1.001229e+00	1.004042e+00	1.008451e+00	1.013227e+00	1.016537e+00	1.017909e+00	1.018107e+00	1.017765e+00	1.016601e+00	1.014292e+00	1.010870e+00	1.006801e+00	1.002587e+00	9.986516e-01	9.952709e-01	9.926246e-01	9.908289e-01	9.898488e-01	9.894788e-01	9.894185e-01	9.895172e-01	9.898720e-01	9.905833e-01	9.915985e-01	9.927073e-01	9.936947e-01	9.944587e-01	9.950024e-01	9.953730e-01	9.956222e-01	9.957873e-01	9.958869e-01	9.959247e-01	9.958980e-01	9.958143e-01	9.956833e-01	9.955140e-01	9.953142e-01	9.951357e-01	9.951499e-01	9.957405e-01	9.975586e-01	1.000863e+00	1.004709e+00	1.007444e+00	1.008457e+00	1.008449e+00	1.008104e+00	1.007143e+00	1.005535e+00	1.003541e+00	1.001589e+00	1.000433e+00	9.991125e-01	9.993470e-01	9.993461e-01	9.993547e-01	9.993561e-01	9.993597e-01	9.993611e-01	9.993609e-01	9.993589e-01	9.993559e-01	9.993524e-01	9.993473e-01	9.993420e-01	9.993368e-01	9.993330e-01	9.993308e-01	9.993311e-01	9.993286e-01	9.993334e-01	9.993309e-01	9.993294e-01	9.993270e-01	9.993222e-01	9.993182e-01	9.993136e-01	9.993041e-01	9.993014e-01	9.992968e-01	9.992915e-01	9.992862e-01	9.992804e-01	9.992740e-01	9.992673e-01	9.992608e-01	9.992550e-01	9.992494e-01	9.992425e-01	9.992343e-01	9.992246e-01	9.992138e-01	9.992018e-01	9.991920e-01	9.991860e-01	9.991823e-01	9.991836e-01	9.992030e-01	9.992981e-01	9.996943e-01	1.000971e+00	1.003951e+00	1.008655e+00	1.013450e+00	1.016631e+00	1.017922e+00	1.018129e+00	1.017939e+00	1.016822e+00	1.014391e+00	1.010865e+00	1.006726e+00	1.002493e+00	9.985455e-01	9.951453e-01	9.925016e-01	9.907363e-01	9.898031e-01	9.894631e-01	9.893988e-01	9.894486e-01	9.898014e-01	9.905494e-01	9.915895e-01	9.927044e-01	9.936882e-01	9.944473e-01	9.949883e-01	9.953588e-01	9.956099e-01	9.957776e-01	9.958791e-01	9.959169e-01	9.958890e-01	9.958034e-01	9.956700e-01	9.954951e-01	9.952775e-01	9.950371e-01	9.949267e-01	9.954614e-01	9.974435e-01	1.001067e+00	1.004978e+00	1.007526e+00	1.008403e+00	1.008394e+00	1.008227e+00	1.007372e+00	1.005629e+00	1.003467e+00	1.001430e+00	1.000297e+00	9.990270e-01	9.993536e-01	9.993501e-01	9.993614e-01	9.993624e-01	9.993654e-01	9.993670e-01	9.993660e-01	9.993620e-01	9.993565e-01	9.993524e-01	9.993485e-01	9.993443e-01	9.993404e-01	9.993377e-01	9.993362e-01	9.993349e-01	9.993331e-01	9.993349e-01	9.993332e-01	9.993328e-01	9.993313e-01	9.993257e-01	9.993201e-01	9.993155e-01	9.993095e-01	9.993056e-01	9.993034e-01	9.992989e-01	9.992929e-01	9.992854e-01	9.992774e-01	9.992696e-01	9.992626e-01	9.992565e-01	9.992506e-01	9.992447e-01	9.992373e-01	9.992281e-01	9.992174e-01	9.992063e-01	9.991962e-01	9.991881e-01	9.991830e-01	9.991826e-01	9.991982e-01	9.992893e-01	9.996841e-01	1.000998e+00	1.004095e+00	1.008841e+00	1.013506e+00	1.016526e+00	1.017770e+00	1.017988e+00	1.017863e+00	1.016848e+00	1.014358e+00	1.010788e+00	1.006707e+00	1.002548e+00	9.986407e-01	9.952652e-01	9.926433e-01	9.908820e-01	9.899257e-01	9.895533e-01	9.894678e-01	9.894888e-01	9.898078e-01	9.905662e-01	9.916129e-01	9.927113e-01	9.936795e-01	9.944340e-01	9.949770e-01	9.953516e-01	9.956064e-01	9.957764e-01	9.958781e-01	9.959142e-01	9.958840e-01	9.957971e-01	9.956625e-01	9.954844e-01	9.952591e-01	9.950043e-01	9.948841e-01	9.954550e-01	9.975622e-01	1.001251e+00	1.005064e+00	1.007449e+00	1.008254e+00	1.008288e+00	1.008190e+00	1.007475e+00	1.005725e+00	1.003540e+00	1.001525e+00	1.000422e+00	9.991329e-01	9.993521e-01	9.993476e-01	9.993594e-01	9.993608e-01	9.993636e-01	9.993652e-01	9.993638e-01	9.993589e-01	9.993540e-01	9.993506e-01	9.993472e-01	9.993435e-01	9.993399e-01	9.993375e-01	9.993359e-01	9.993356e-01	9.993335e-01	9.993354e-01	9.993339e-01	9.993327e-01	9.993308e-01	9.993251e-01	9.993196e-01	9.993148e-01	9.993082e-01	9.993047e-01	9.993003e-01	9.992953e-01	9.992889e-01	9.992816e-01	9.992740e-01	9.992670e-01	9.992610e-01	9.992556e-01	9.992502e-01	9.992444e-01	9.992372e-01	9.992282e-01	9.992173e-01	9.992063e-01	9.991957e-01	9.991863e-01	9.991794e-01	9.991770e-01	9.991885e-01	9.992674e-01	9.996416e-01	1.000958e+00	1.004110e+00	1.008894e+00	1.013502e+00	1.016422e+00	1.017633e+00	1.017866e+00	1.017764e+00	1.016880e+00	1.014435e+00	1.010805e+00	1.006722e+00	1.002598e+00	9.987124e-01	9.953425e-01	9.927187e-01	9.909500e-01	9.899796e-01	9.895888e-01	9.894990e-01	9.895062e-01	9.897778e-01	9.905230e-01	9.915825e-01	9.926779e-01	9.936382e-01	9.943935e-01	9.949424e-01	9.953242e-01	9.955857e-01	9.957607e-01	9.958650e-01	9.959012e-01	9.958697e-01	9.957807e-01	9.956435e-01	9.954616e-01	9.952296e-01	9.949615e-01	9.948187e-01	9.953818e-01	9.975412e-01	1.001289e+00	1.005041e+00	1.007319e+00	1.008099e+00	1.008179e+00	1.008120e+00	1.007520e+00	1.005863e+00	1.003652e+00	1.001632e+00	1.000555e+00	9.993020e-01	9.993531e-01	9.993486e-01	9.993593e-01	9.993608e-01	9.993630e-01	9.993641e-01	9.993622e-01	9.993572e-01	9.993521e-01	9.993486e-01	9.993450e-01	9.993412e-01	9.993375e-01	9.993351e-01	9.993339e-01	9.993335e-01	9.993324e-01	9.993343e-01	9.993332e-01	9.993318e-01	9.993297e-01	9.993240e-01	9.993182e-01	9.993130e-01	9.993061e-01	9.993016e-01	9.992969e-01	9.992912e-01	9.992844e-01	9.992771e-01	9.992702e-01	9.992643e-01	9.992594e-01	9.992549e-01	9.992501e-01	9.992446e-01	9.992373e-01	9.992281e-01	9.992174e-01	9.992062e-01	9.991949e-01	9.991848e-01	9.991766e-01	9.991726e-01	9.991821e-01	9.992552e-01	9.996159e-01	1.000929e+00	1.004108e+00	1.008900e+00	1.013455e+00	1.016303e+00	1.017473e+00	1.017709e+00	1.017626e+00	1.016848e+00	1.014522e+00	1.010878e+00	1.006773e+00	1.002689e+00	9.988429e-01	9.954862e-01	9.928489e-01	9.910583e-01	9.900648e-01	9.896525e-01	9.895448e-01	9.895375e-01	9.897553e-01	9.904543e-01	9.915176e-01	9.926229e-01	9.935835e-01	9.943422e-01	9.949000e-01	9.952923e-01	9.955620e-01	9.957425e-01	9.958495e-01	9.958861e-01	9.958533e-01	9.957614e-01	9.956208e-01	9.954347e-01	9.951968e-01	9.949206e-01	9.947657e-01	9.953210e-01	9.974953e-01	1.001245e+00	1.004937e+00	1.007137e+00	1.007929e+00	1.008052e+00	1.008019e+00	1.007528e+00	1.006027e+00	1.003853e+00	1.001821e+00	1.000759e+00	9.995408e-01	9.993532e-01	9.993495e-01	9.993587e-01	9.993600e-01	9.993613e-01	9.993619e-01	9.993601e-01	9.993556e-01	9.993511e-01	9.993478e-01	9.993441e-01	9.993401e-01	9.993364e-01	9.993339e-01	9.993327e-01	9.993324e-01	9.993313e-01	9.993334e-01	9.993323e-01	9.993309e-01	9.993289e-01	9.993234e-01	9.993178e-01	9.993118e-01	9.993049e-01	9.993004e-01	9.992955e-01	9.992896e-01	9.992829e-01	9.992760e-01	9.992698e-01	9.992646e-01	9.992604e-01	9.992566e-01	9.992521e-01	9.992462e-01	9.992383e-01	9.992286e-01	9.992175e-01	9.992058e-01	9.991932e-01	9.991828e-01	9.991741e-01	9.991687e-01	9.991767e-01	9.992473e-01	9.996021e-01	1.000908e+00	1.004086e+00	1.008868e+00	1.013367e+00	1.016160e+00	1.017304e+00	1.017538e+00	1.017466e+00	1.016778e+00	1.014602e+00	1.011009e+00	1.006878e+00	1.002802e+00	9.990081e-01	9.956754e-01	9.930239e-01	9.911993e-01	9.901705e-01	9.897350e-01	9.896117e-01	9.895916e-01	9.897541e-01	9.903796e-01	9.914212e-01	9.925409e-01	9.935139e-01	9.942806e-01	9.948500e-01	9.952552e-01	9.955344e-01	9.957200e-01	9.958291e-01	9.958659e-01	9.958320e-01	9.957376e-01	9.955933e-01	9.954027e-01	9.951596e-01	9.948776e-01	9.947186e-01	9.952678e-01	9.974223e-01	1.001125e+00	1.004753e+00	1.006929e+00	1.007764e+00	1.007929e+00	1.007914e+00	1.007521e+00	1.006199e+00	1.004139e+00	1.002118e+00	1.001042e+00	9.998531e-01	9.993527e-01	9.993515e-01	9.993584e-01	9.993593e-01	9.993598e-01	9.993592e-01	9.993579e-01	9.993546e-01	9.993516e-01	9.993483e-01	9.993448e-01	9.993409e-01	9.993373e-01	9.993346e-01	9.993330e-01	9.993321e-01	9.993310e-01	9.993319e-01	9.993305e-01	9.993295e-01	9.993272e-01	9.993217e-01	9.993172e-01	9.993105e-01	9.993043e-01	9.992996e-01	9.992951e-01	9.992896e-01	9.992834e-01	9.992771e-01	9.992715e-01	9.992672e-01	9.992635e-01	9.992589e-01	9.992531e-01	9.992464e-01	9.992384e-01	9.992288e-01	9.992178e-01	9.992050e-01	9.991919e-01	9.991813e-01	9.991726e-01	9.991668e-01	9.991744e-01	9.992453e-01	9.996005e-01	1.000898e+00	1.004047e+00	1.008781e+00	1.013235e+00	1.015996e+00	1.017126e+00	1.017359e+00	1.017293e+00	1.016685e+00	1.014670e+00	1.011182e+00	1.007044e+00	1.002962e+00	9.992026e-01	9.959000e-01	9.932449e-01	9.913858e-01	9.903102e-01	9.898353e-01	9.896962e-01	9.896701e-01	9.897855e-01	9.903227e-01	9.913131e-01	9.924406e-01	9.934333e-01	9.942132e-01	9.947955e-01	9.952139e-01	9.955040e-01	9.956943e-01	9.958039e-01	9.958398e-01	9.958050e-01	9.957088e-01	9.955620e-01	9.953673e-01	9.951196e-01	9.948338e-01	9.946772e-01	9.952245e-01	9.973329e-01	1.000948e+00	1.004508e+00	1.006711e+00	1.007614e+00	1.007825e+00	1.007828e+00	1.007515e+00	1.006381e+00	1.004486e+00	1.002513e+00	1.001417e+00	1.000239e+00	9.993524e-01	9.993539e-01	9.993586e-01	9.993578e-01	9.993582e-01	9.993568e-01	9.993550e-01	9.993529e-01	9.993520e-01	9.993501e-01	9.993467e-01	9.993431e-01	9.993398e-01	9.993371e-01	9.993350e-01	9.993332e-01	9.993322e-01	9.993293e-01	9.993301e-01	9.993281e-01	9.993256e-01	9.993201e-01	9.993162e-01	9.993098e-01	9.993052e-01	9.993003e-01	9.992961e-01	9.992910e-01	9.992854e-01	9.992797e-01	9.992749e-01	9.992698e-01	9.992638e-01	9.992581e-01	9.992523e-01	9.992457e-01	9.992380e-01	9.992288e-01	9.992171e-01	9.992036e-01	9.991904e-01	9.991800e-01	9.991722e-01	9.991664e-01	9.991740e-01	9.992478e-01	9.996105e-01	1.000905e+00	1.004002e+00	1.008649e+00	1.013047e+00	1.015794e+00	1.016929e+00	1.017169e+00	1.017110e+00	1.016576e+00	1.014728e+00	1.011388e+00	1.007289e+00	1.003188e+00	9.994295e-01	9.961509e-01	9.934995e-01	9.916099e-01	9.904842e-01	9.899614e-01	9.897943e-01	9.897610e-01	9.898385e-01	9.902837e-01	9.912017e-01	9.923214e-01	9.933363e-01	9.941372e-01	9.947356e-01	9.951687e-01	9.954691e-01	9.956647e-01	9.957745e-01	9.958083e-01	9.957722e-01	9.956754e-01	9.955273e-01	9.953302e-01	9.950774e-01	9.947899e-01	9.946410e-01	9.951875e-01	9.972294e-01	1.000719e+00	1.004212e+00	1.006473e+00	1.007471e+00	1.007731e+00	1.007749e+00	1.007518e+00	1.006578e+00	1.004882e+00	1.002996e+00	1.001885e+00	1.000701e+00	9.993517e-01	9.993565e-01	9.993580e-01	9.993582e-01	9.993573e-01	9.993561e-01	9.993543e-01	9.993525e-01	9.993505e-01	9.993498e-01	9.993480e-01	9.993452e-01	9.993417e-01	9.993390e-01	9.993366e-01	9.993345e-01	9.993322e-01	9.993312e-01	9.993276e-01	9.993265e-01	9.993236e-01	9.993193e-01	9.993148e-01	9.993095e-01	9.993062e-01	9.993020e-01	9.992978e-01	9.992930e-01	9.992875e-01	9.992820e-01	9.992760e-01	9.992694e-01	9.992637e-01	9.992580e-01	9.992518e-01	9.992452e-01	9.992377e-01	9.992284e-01	9.992165e-01	9.992028e-01	9.991897e-01	9.991798e-01	9.991732e-01	9.991681e-01	9.991754e-01	9.992530e-01	9.996270e-01	1.000923e+00	1.003959e+00	1.008486e+00	1.012802e+00	1.015541e+00	1.016698e+00	1.016956e+00	1.016909e+00	1.016447e+00	1.014771e+00	1.011605e+00	1.007582e+00	1.003473e+00	9.997027e-01	9.964350e-01	9.937848e-01	9.918622e-01	9.906818e-01	9.901074e-01	9.899088e-01	9.898646e-01	9.899046e-01	9.902538e-01	9.910839e-01	9.921844e-01	9.932248e-01	9.940533e-01	9.946697e-01	9.951159e-01	9.954273e-01	9.956290e-01	9.957396e-01	9.957715e-01	9.957340e-01	9.956373e-01	9.954888e-01	9.952880e-01	9.950302e-01	9.947425e-01	9.946047e-01	9.951486e-01	9.971080e-01	1.000446e+00	1.003866e+00	1.006202e+00	1.007310e+00	1.007626e+00	1.007661e+00	1.007525e+00	1.006788e+00	1.005316e+00	1.003554e+00	1.002449e+00	1.001255e+00	9.993534e-01	9.993586e-01	9.993595e-01	9.993598e-01	9.993579e-01	9.993558e-01	9.993542e-01	9.993522e-01	9.993502e-01	9.993478e-01	9.993459e-01	9.993437e-01	9.993415e-01	9.993385e-01	9.993361e-01	9.993342e-01	9.993320e-01	9.993310e-01	9.993288e-01	9.993255e-01	9.993229e-01	9.993185e-01	9.993152e-01	9.993111e-01	9.993064e-01	9.993027e-01	9.992984e-01	9.992936e-01	9.992881e-01	9.992822e-01	9.992752e-01	9.992688e-01	9.992625e-01	9.992568e-01	9.992507e-01	9.992445e-01	9.992371e-01	9.992278e-01	9.992159e-01	9.992022e-01	9.991895e-01	9.991803e-01	9.991748e-01	9.991709e-01	9.991784e-01	9.992606e-01	9.996505e-01	1.000952e+00	1.003917e+00	1.008303e+00	1.012515e+00	1.015240e+00	1.016427e+00	1.016713e+00	1.016681e+00	1.016294e+00	1.014790e+00	1.011815e+00	1.007898e+00	1.003808e+00	1.000028e+00	9.967607e-01	9.941058e-01	9.921452e-01	9.909008e-01	9.902660e-01	9.900295e-01	9.899704e-01	9.899767e-01	9.902292e-01	9.909553e-01	9.920215e-01	9.930851e-01	9.939481e-01	9.945892e-01	9.950514e-01	9.953746e-01	9.955839e-01	9.956972e-01	9.957284e-01	9.956901e-01	9.955926e-01	9.954421e-01	9.952368e-01	9.949738e-01	9.946874e-01	9.945618e-01	9.950958e-01	9.969580e-01	1.000131e+00	1.003475e+00	1.005891e+00	1.007112e+00	1.007489e+00	1.007551e+00	1.007518e+00	1.007001e+00	1.005775e+00	1.004169e+00	1.003100e+00	1.001907e+00	9.993535e-01	9.993584e-01	9.993598e-01	9.993604e-01	9.993579e-01	9.993553e-01	9.993532e-01	9.993514e-01	9.993486e-01	9.993457e-01	9.993422e-01	9.993403e-01	9.993379e-01	9.993362e-01	9.993341e-01	9.993325e-01	9.993309e-01	9.993300e-01	9.993290e-01	9.993276e-01	9.993249e-01	9.993208e-01	9.993155e-01	9.993099e-01	9.993056e-01	9.993016e-01	9.992973e-01	9.992923e-01	9.992865e-01	9.992801e-01	9.992729e-01	9.992662e-01	9.992600e-01	9.992546e-01	9.992493e-01	9.992434e-01	9.992360e-01	9.992263e-01	9.992143e-01	9.992008e-01	9.991886e-01	9.991802e-01	9.991757e-01	9.991730e-01	9.991812e-01	9.992696e-01	9.996810e-01	1.000989e+00	1.003873e+00	1.008100e+00	1.012198e+00	1.014903e+00	1.016121e+00	1.016436e+00	1.016421e+00	1.016105e+00	1.014776e+00	1.012004e+00	1.008216e+00	1.004170e+00	1.000395e+00	9.971283e-01	9.944653e-01	9.924651e-01	9.911488e-01	9.904401e-01	9.901529e-01	9.900728e-01	9.900540e-01	9.902142e-01	9.908177e-01	9.918277e-01	9.929085e-01	9.938128e-01	9.944882e-01	9.949720e-01	9.953087e-01	9.955269e-01	9.956446e-01	9.956770e-01	9.956378e-01	9.955385e-01	9.953843e-01	9.951730e-01	9.949048e-01	9.946203e-01	9.945036e-01	9.950197e-01	9.967726e-01	9.997735e-01	1.003050e+00	1.005551e+00	1.006880e+00	1.007314e+00	1.007413e+00	1.007495e+00	1.007210e+00	1.006251e+00	1.004826e+00	1.003819e+00	1.002643e+00	9.993511e-01	9.993552e-01	9.993572e-01	9.993582e-01	9.993556e-01	9.993530e-01	9.993507e-01	9.993486e-01	9.993461e-01	9.993422e-01	9.993387e-01	9.993356e-01	9.993342e-01	9.993327e-01	9.993316e-01	9.993303e-01	9.993291e-01	9.993285e-01	9.993273e-01	9.993252e-01	9.993220e-01	9.993181e-01	9.993137e-01	9.993082e-01	9.993033e-01	9.992990e-01	9.992945e-01	9.992894e-01	9.992833e-01	9.992761e-01	9.992689e-01	9.992624e-01	9.992567e-01	9.992520e-01	9.992470e-01	9.992410e-01	9.992332e-01	9.992231e-01	9.992109e-01	9.991976e-01	9.991858e-01	9.991779e-01	9.991741e-01	9.991721e-01	9.991814e-01	9.992801e-01	9.997177e-01	1.001032e+00	1.003824e+00	1.007876e+00	1.011849e+00	1.014537e+00	1.015790e+00	1.016135e+00	1.016135e+00	1.015883e+00	1.014725e+00	1.012167e+00	1.008528e+00	1.004548e+00	1.000794e+00	9.975309e-01	9.948586e-01	9.928213e-01	9.914330e-01	9.906387e-01	9.902866e-01	9.901734e-01	9.901389e-01	9.902215e-01	9.906857e-01	9.916083e-01	9.926932e-01	9.936417e-01	9.943605e-01	9.948736e-01	9.952277e-01	9.954565e-01	9.955811e-01	9.956163e-01	9.955766e-01	9.954739e-01	9.953139e-01	9.950954e-01	9.948211e-01	9.945365e-01	9.944244e-01	9.949143e-01	9.965516e-01	9.993848e-01	1.002610e+00	1.005199e+00	1.006629e+00	1.007118e+00	1.007266e+00	1.007468e+00	1.007419e+00	1.006736e+00	1.005511e+00	1.004590e+00	1.003449e+00	9.993459e-01	9.993484e-01	9.993516e-01	9.993527e-01	9.993501e-01	9.993478e-01	9.993457e-01	9.993440e-01	9.993415e-01	9.993382e-01	9.993342e-01	9.993318e-01	9.993300e-01	9.993294e-01	9.993286e-01	9.993281e-01	9.993273e-01	9.993266e-01	9.993252e-01	9.993225e-01	9.993190e-01	9.993151e-01	9.993110e-01	9.993055e-01	9.993004e-01	9.992961e-01	9.992916e-01	9.992861e-01	9.992791e-01	9.992719e-01	9.992647e-01	9.992584e-01	9.992530e-01	9.992484e-01	9.992430e-01	9.992365e-01	9.992283e-01	9.992180e-01	9.992057e-01	9.991927e-01	9.991812e-01	9.991734e-01	9.991695e-01	9.991671e-01	9.991796e-01	9.992938e-01	9.997589e-01	1.001076e+00	1.003772e+00	1.007636e+00	1.011470e+00	1.014140e+00	1.015436e+00	1.015819e+00	1.015832e+00	1.015632e+00	1.014642e+00	1.012309e+00	1.008836e+00	1.004942e+00	1.001220e+00	9.979635e-01	9.952796e-01	9.932065e-01	9.917510e-01	9.908689e-01	9.904389e-01	9.902827e-01	9.902322e-01	9.902572e-01	9.905789e-01	9.913786e-01	9.924438e-01	9.934342e-01	9.942026e-01	9.947528e-01	9.951303e-01	9.953737e-01	9.955075e-01	9.955475e-01	9.955077e-01	9.954005e-01	9.952329e-01	9.950050e-01	9.947220e-01	9.944335e-01	9.943207e-01	9.947797e-01	9.963014e-01	9.989815e-01	1.002171e+00	1.004844e+00	1.006369e+00	1.006918e+00	1.007129e+00	1.007452e+00	1.007628e+00	1.007223e+00	1.006219e+00	1.005407e+00	1.004321e+00	9.993388e-01	9.993399e-01	9.993446e-01	9.993455e-01	9.993427e-01	9.993405e-01	9.993389e-01	9.993381e-01	9.993365e-01	9.993336e-01	9.993305e-01	9.993284e-01	9.993272e-01	9.993264e-01	9.993265e-01	9.993264e-01	9.993251e-01	9.993238e-01	9.993215e-01	9.993180e-01	9.993138e-01	9.993101e-01	9.993065e-01	9.993018e-01	9.992972e-01	9.992932e-01	9.992880e-01	9.992818e-01	9.992751e-01	9.992676e-01	9.992607e-01	9.992545e-01	9.992488e-01	9.992435e-01	9.992374e-01	9.992303e-01	9.992218e-01	9.992116e-01	9.991998e-01	9.991871e-01	9.991757e-01	9.991675e-01	9.991625e-01	9.991590e-01	9.991787e-01	9.993117e-01	9.998037e-01	1.001123e+00	1.003720e+00	1.007388e+00	1.011067e+00	1.013711e+00	1.015055e+00	1.015482e+00	1.015512e+00	1.015360e+00	1.014533e+00	1.012434e+00	1.009150e+00	1.005358e+00	1.001678e+00	9.984287e-01	9.957295e-01	9.936172e-01	9.920952e-01	9.911274e-01	9.906153e-01	9.904047e-01	9.903352e-01	9.903183e-01	9.905088e-01	9.911566e-01	9.921688e-01	9.931919e-01	9.940143e-01	9.946089e-01	9.950169e-01	9.952799e-01	9.954256e-01	9.954714e-01	9.954319e-01	9.953196e-01	9.951429e-01	9.949030e-01	9.946077e-01	9.943114e-01	9.941934e-01	9.946171e-01	9.960309e-01	9.985848e-01	1.001748e+00	1.004485e+00	1.006090e+00	1.006715e+00	1.007006e+00	1.007443e+00	1.007836e+00	1.007716e+00	1.006957e+00	1.006275e+00	1.005260e+00	9.993309e-01	9.993324e-01	9.993387e-01	9.993389e-01	9.993357e-01	9.993331e-01	9.993317e-01	9.993318e-01	9.993315e-01	9.993297e-01	9.993277e-01	9.993262e-01	9.993256e-01	9.993248e-01	9.993239e-01	9.993240e-01	9.993226e-01	9.993202e-01	9.993166e-01	9.993120e-01	9.993070e-01	9.993037e-01	9.993009e-01	9.992976e-01	9.992940e-01	9.992894e-01	9.992841e-01	9.992776e-01	9.992707e-01	9.992637e-01	9.992570e-01	9.992506e-01	9.992444e-01	9.992383e-01	9.992314e-01	9.992239e-01	9.992155e-01	9.992057e-01	9.991943e-01	9.991820e-01	9.991706e-01	9.991617e-01	9.991543e-01	9.991513e-01	9.991806e-01	9.993329e-01	9.998524e-01	1.001174e+00	1.003675e+00	1.007141e+00	1.010651e+00	1.013253e+00	1.014642e+00	1.015120e+00	1.015174e+00	1.015065e+00	1.014395e+00	1.012543e+00	1.009472e+00	1.005802e+00	1.002172e+00	9.989340e-01	9.962173e-01	9.940595e-01	9.924653e-01	9.914087e-01	9.908110e-01	9.905385e-01	9.904392e-01	9.903966e-01	9.904795e-01	9.909593e-01	9.918787e-01	9.929194e-01	9.937991e-01	9.944458e-01	9.948906e-01	9.951772e-01	9.953362e-01	9.953878e-01	9.953482e-01	9.952307e-01	9.950443e-01	9.947909e-01	9.944808e-01	9.941732e-01	9.940451e-01	9.944305e-01	9.957532e-01	9.982171e-01	1.001354e+00	1.004112e+00	1.005779e+00	1.006502e+00	1.006884e+00	1.007438e+00	1.008043e+00	1.008219e+00	1.007728e+00	1.007200e+00	1.006270e+00	9.993261e-01	9.993277e-01	9.993329e-01	9.993343e-01	9.993308e-01	9.993281e-01	9.993265e-01	9.993268e-01	9.993278e-01	9.993272e-01	9.993262e-01	9.993252e-01	9.993247e-01	9.993243e-01	9.993234e-01	9.993208e-01	9.993199e-01	9.993164e-01	9.993116