# vtk DataFile Version 3.0
vtk output
ASCII
DATASET STRUCTURED_GRID
DIMENSIONS 101 101 1
POINTS 10201 double
0.000000e+00	0.000000e+00	0.0	1.000000e-02	0.000000e+00	0.0	2.000000e-02	0.000000e+00	0.0	3.000000e-02	0.000000e+00	0.0	4.000000e-02	0.000000e+00	0.0	5.000000e-02	0.000000e+00	0.0	6.000000e-02	0.000000e+00	0.0	7.000000e-02	0.000000e+00	0.0	8.000000e-02	0.000000e+00	0.0	9.000000e-02	0.000000e+00	0.0	1.000000e-01	0.000000e+00	0.0	1.100000e-01	0.000000e+00	0.0	1.200000e-01	0.000000e+00	0.0	1.300000e-01	0.000000e+00	0.0	1.400000e-01	0.000000e+00	0.0	1.500000e-01	0.000000e+00	0.0	1.600000e-01	0.000000e+00	0.0	1.700000e-01	0.000000e+00	0.0	1.800000e-01	0.000000e+00	0.0	1.900000e-01	0.000000e+00	0.0	2.000000e-01	0.000000e+00	0.0	2.100000e-01	0.000000e+00	0.0	2.200000e-01	0.000000e+00	0.0	2.300000e-01	0.000000e+00	0.0	2.400000e-01	0.000000e+00	0.0	2.500000e-01	0.000000e+00	0.0	2.600000e-01	0.000000e+00	0.0	2.700000e-01	0.000000e+00	0.0	2.800000e-01	0.000000e+00	0.0	2.900000e-01	0.000000e+00	0.0	3.000000e-01	0.000000e+00	0.0	3.100000e-01	0.000000e+00	0.0	3.200000e-01	0.000000e+00	0.0	3.300000e-01	0.000000e+00	0.0	3.400000e-01	0.000000e+00	0.0	3.500000e-01	0.000000e+00	0.0	3.600000e-01	0.000000e+00	0.0	3.700000e-01	0.000000e+00	0.0	3.800000e-01	0.000000e+00	0.0	3.900000e-01	0.000000e+00	0.0	4.000000e-01	0.000000e+00	0.0	4.100000e-01	0.000000e+00	0.0	4.200000e-01	0.000000e+00	0.0	4.300000e-01	0.000000e+00	0.0	4.400000e-01	0.000000e+00	0.0	4.500000e-01	0.000000e+00	0.0	4.600000e-01	0.000000e+00	0.0	4.700000e-01	0.000000e+00	0.0	4.800000e-01	0.000000e+00	0.0	4.900000e-01	0.000000e+00	0.0	5.000000e-01	0.000000e+00	0.0	5.100000e-01	0.000000e+00	0.0	5.200000e-01	0.000000e+00	0.0	5.300000e-01	0.000000e+00	0.0	5.400000e-01	0.000000e+00	0.0	5.500000e-01	0.000000e+00	0.0	5.600000e-01	0.000000e+00	0.0	5.700000e-01	0.000000e+00	0.0	5.800000e-01	0.000000e+00	0.0	5.900000e-01	0.000000e+00	0.0	6.000000e-01	0.000000e+00	0.0	6.100000e-01	0.000000e+00	0.0	6.200000e-01	0.000000e+00	0.0	6.300000e-01	0.000000e+00	0.0	6.400000e-01	0.000000e+00	0.0	6.500000e-01	0.000000e+00	0.0	6.600000e-01	0.000000e+00	0.0	6.700000e-01	0.000000e+00	0.0	6.800000e-01	0.000000e+00	0.0	6.900000e-01	0.000000e+00	0.0	7.000000e-01	0.000000e+00	0.0	7.100000e-01	0.000000e+00	0.0	7.200000e-01	0.000000e+00	0.0	7.300000e-01	0.000000e+00	0.0	7.400000e-01	0.000000e+00	0.0	7.500000e-01	0.000000e+00	0.0	7.600000e-01	0.000000e+00	0.0	7.700000e-01	0.000000e+00	0.0	7.800000e-01	0.000000e+00	0.0	7.900000e-01	0.000000e+00	0.0	8.000000e-01	0.000000e+00	0.0	8.100000e-01	0.000000e+00	0.0	8.200000e-01	0.000000e+00	0.0	8.300000e-01	0.000000e+00	0.0	8.400000e-01	0.000000e+00	0.0	8.500000e-01	0.000000e+00	0.0	8.600000e-01	0.000000e+00	0.0	8.700000e-01	0.000000e+00	0.0	8.800000e-01	0.000000e+00	0.0	8.900000e-01	0.000000e+00	0.0	9.000000e-01	0.000000e+00	0.0	9.100000e-01	0.000000e+00	0.0	9.200000e-01	0.000000e+00	0.0	9.300000e-01	0.000000e+00	0.0	9.400000e-01	0.000000e+00	0.0	9.500000e-01	0.000000e+00	0.0	9.600000e-01	0.000000e+00	0.0	9.700000e-01	0.000000e+00	0.0	9.800000e-01	0.000000e+00	0.0	9.900000e-01	0.000000e+00	0.0	1.000000e+00	0.000000e+00	0.0	0.000000e+00	1.000000e-02	0.0	1.000000e-02	1.000000e-02	0.0	2.000000e-02	1.000000e-02	0.0	3.000000e-02	1.000000e-02	0.0	4.000000e-02	1.000000e-02	0.0	5.000000e-02	1.000000e-02	0.0	6.000000e-02	1.000000e-02	0.0	7.000000e-02	1.000000e-02	0.0	8.000000e-02	1.000000e-02	0.0	9.000000e-02	1.000000e-02	0.0	1.000000e-01	1.000000e-02	0.0	1.100000e-01	1.000000e-02	0.0	1.200000e-01	1.000000e-02	0.0	1.300000e-01	1.000000e-02	0.0	1.400000e-01	1.000000e-02	0.0	1.500000e-01	1.000000e-02	0.0	1.600000e-01	1.000000e-02	0.0	1.700000e-01	1.000000e-02	0.0	1.800000e-01	1.000000e-02	0.0	1.900000e-01	1.000000e-02	0.0	2.000000e-01	1.000000e-02	0.0	2.100000e-01	1.000000e-02	0.0	2.200000e-01	1.000000e-02	0.0	2.300000e-01	1.000000e-02	0.0	2.400000e-01	1.000000e-02	0.0	2.500000e-01	1.000000e-02	0.0	2.600000e-01	1.000000e-02	0.0	2.700000e-01	1.000000e-02	0.0	2.800000e-01	1.000000e-02	0.0	2.900000e-01	1.000000e-02	0.0	3.000000e-01	1.000000e-02	0.0	3.100000e-01	1.000000e-02	0.0	3.200000e-01	1.000000e-02	0.0	3.300000e-01	1.000000e-02	0.0	3.400000e-01	1.000000e-02	0.0	3.500000e-01	1.000000e-02	0.0	3.600000e-01	1.000000e-02	0.0	3.700000e-01	1.000000e-02	0.0	3.800000e-01	1.000000e-02	0.0	3.900000e-01	1.000000e-02	0.0	4.000000e-01	1.000000e-02	0.0	4.100000e-01	1.000000e-02	0.0	4.200000e-01	1.000000e-02	0.0	4.300000e-01	1.000000e-02	0.0	4.400000e-01	1.000000e-02	0.0	4.500000e-01	1.000000e-02	0.0	4.600000e-01	1.000000e-02	0.0	4.700000e-01	1.000000e-02	0.0	4.800000e-01	1.000000e-02	0.0	4.900000e-01	1.000000e-02	0.0	5.000000e-01	1.000000e-02	0.0	5.100000e-01	1.000000e-02	0.0	5.200000e-01	1.000000e-02	0.0	5.300000e-01	1.000000e-02	0.0	5.400000e-01	1.000000e-02	0.0	5.500000e-01	1.000000e-02	0.0	5.600000e-01	1.000000e-02	0.0	5.700000e-01	1.000000e-02	0.0	5.800000e-01	1.000000e-02	0.0	5.900000e-01	1.000000e-02	0.0	6.000000e-01	1.000000e-02	0.0	6.100000e-01	1.000000e-02	0.0	6.200000e-01	1.000000e-02	0.0	6.300000e-01	1.000000e-02	0.0	6.400000e-01	1.000000e-02	0.0	6.500000e-01	1.000000e-02	0.0	6.600000e-01	1.000000e-02	0.0	6.700000e-01	1.000000e-02	0.0	6.800000e-01	1.000000e-02	0.0	6.900000e-01	1.000000e-02	0.0	7.000000e-01	1.000000e-02	0.0	7.100000e-01	1.000000e-02	0.0	7.200000e-01	1.000000e-02	0.0	7.300000e-01	1.000000e-02	0.0	7.400000e-01	1.000000e-02	0.0	7.500000e-01	1.000000e-02	0.0	7.600000e-01	1.000000e-02	0.0	7.700000e-01	1.000000e-02	0.0	7.800000e-01	1.000000e-02	0.0	7.900000e-01	1.000000e-02	0.0	8.000000e-01	1.000000e-02	0.0	8.100000e-01	1.000000e-02	0.0	8.200000e-01	1.000000e-02	0.0	8.300000e-01	1.000000e-02	0.0	8.400000e-01	1.000000e-02	0.0	8.500000e-01	1.000000e-02	0.0	8.600000e-01	1.000000e-02	0.0	8.700000e-01	1.000000e-02	0.0	8.800000e-01	1.000000e-02	0.0	8.900000e-01	1.000000e-02	0.0	9.000000e-01	1.000000e-02	0.0	9.100000e-01	1.000000e-02	0.0	9.200000e-01	1.000000e-02	0.0	9.300000e-01	1.000000e-02	0.0	9.400000e-01	1.000000e-02	0.0	9.500000e-01	1.000000e-02	0.0	9.600000e-01	1.000000e-02	0.0	9.700000e-01	1.000000e-02	0.0	9.800000e-01	1.000000e-02	0.0	9.900000e-01	1.000000e-02	0.0	1.000000e+00	1.000000e-02	0.0	0.000000e+00	2.000000e-02	0.0	1.000000e-02	2.000000e-02	0.0	2.000000e-02	2.000000e-02	0.0	3.000000e-02	2.000000e-02	0.0	4.000000e-02	2.000000e-02	0.0	5.000000e-02	2.000000e-02	0.0	6.000000e-02	2.000000e-02	0.0	7.000000e-02	2.000000e-02	0.0	8.000000e-02	2.000000e-02	0.0	9.000000e-02	2.000000e-02	0.0	1.000000e-01	2.000000e-02	0.0	1.100000e-01	2.000000e-02	0.0	1.200000e-01	2.000000e-02	0.0	1.300000e-01	2.000000e-02	0.0	1.400000e-01	2.000000e-02	0.0	1.500000e-01	2.000000e-02	0.0	1.600000e-01	2.000000e-02	0.0	1.700000e-01	2.000000e-02	0.0	1.800000e-01	2.000000e-02	0.0	1.900000e-01	2.000000e-02	0.0	2.000000e-01	2.000000e-02	0.0	2.100000e-01	2.000000e-02	0.0	2.200000e-01	2.000000e-02	0.0	2.300000e-01	2.000000e-02	0.0	2.400000e-01	2.000000e-02	0.0	2.500000e-01	2.000000e-02	0.0	2.600000e-01	2.000000e-02	0.0	2.700000e-01	2.000000e-02	0.0	2.800000e-01	2.000000e-02	0.0	2.900000e-01	2.000000e-02	0.0	3.000000e-01	2.000000e-02	0.0	3.100000e-01	2.000000e-02	0.0	3.200000e-01	2.000000e-02	0.0	3.300000e-01	2.000000e-02	0.0	3.400000e-01	2.000000e-02	0.0	3.500000e-01	2.000000e-02	0.0	3.600000e-01	2.000000e-02	0.0	3.700000e-01	2.000000e-02	0.0	3.800000e-01	2.000000e-02	0.0	3.900000e-01	2.000000e-02	0.0	4.000000e-01	2.000000e-02	0.0	4.100000e-01	2.000000e-02	0.0	4.200000e-01	2.000000e-02	0.0	4.300000e-01	2.000000e-02	0.0	4.400000e-01	2.000000e-02	0.0	4.500000e-01	2.000000e-02	0.0	4.600000e-01	2.000000e-02	0.0	4.700000e-01	2.000000e-02	0.0	4.800000e-01	2.000000e-02	0.0	4.900000e-01	2.000000e-02	0.0	5.000000e-01	2.000000e-02	0.0	5.100000e-01	2.000000e-02	0.0	5.200000e-01	2.000000e-02	0.0	5.300000e-01	2.000000e-02	0.0	5.400000e-01	2.000000e-02	0.0	5.500000e-01	2.000000e-02	0.0	5.600000e-01	2.000000e-02	0.0	5.700000e-01	2.000000e-02	0.0	5.800000e-01	2.000000e-02	0.0	5.900000e-01	2.000000e-02	0.0	6.000000e-01	2.000000e-02	0.0	6.100000e-01	2.000000e-02	0.0	6.200000e-01	2.000000e-02	0.0	6.300000e-01	2.000000e-02	0.0	6.400000e-01	2.000000e-02	0.0	6.500000e-01	2.000000e-02	0.0	6.600000e-01	2.000000e-02	0.0	6.700000e-01	2.000000e-02	0.0	6.800000e-01	2.000000e-02	0.0	6.900000e-01	2.000000e-02	0.0	7.000000e-01	2.000000e-02	0.0	7.100000e-01	2.000000e-02	0.0	7.200000e-01	2.000000e-02	0.0	7.300000e-01	2.000000e-02	0.0	7.400000e-01	2.000000e-02	0.0	7.500000e-01	2.000000e-02	0.0	7.600000e-01	2.000000e-02	0.0	7.700000e-01	2.000000e-02	0.0	7.800000e-01	2.000000e-02	0.0	7.900000e-01	2.000000e-02	0.0	8.000000e-01	2.000000e-02	0.0	8.100000e-01	2.000000e-02	0.0	8.200000e-01	2.000000e-02	0.0	8.300000e-01	2.000000e-02	0.0	8.400000e-01	2.000000e-02	0.0	8.500000e-01	2.000000e-02	0.0	8.600000e-01	2.000000e-02	0.0	8.700000e-01	2.000000e-02	0.0	8.800000e-01	2.000000e-02	0.0	8.900000e-01	2.000000e-02	0.0	9.000000e-01	2.000000e-02	0.0	9.100000e-01	2.000000e-02	0.0	9.200000e-01	2.000000e-02	0.0	9.300000e-01	2.000000e-02	0.0	9.400000e-01	2.000000e-02	0.0	9.500000e-01	2.000000e-02	0.0	9.600000e-01	2.000000e-02	0.0	9.700000e-01	2.000000e-02	0.0	9.800000e-01	2.000000e-02	0.0	9.900000e-01	2.000000e-02	0.0	1.000000e+00	2.000000e-02	0.0	0.000000e+00	3.000000e-02	0.0	1.000000e-02	3.000000e-02	0.0	2.000000e-02	3.000000e-02	0.0	3.000000e-02	3.000000e-02	0.0	4.000000e-02	3.000000e-02	0.0	5.000000e-02	3.000000e-02	0.0	6.000000e-02	3.000000e-02	0.0	7.000000e-02	3.000000e-02	0.0	8.000000e-02	3.000000e-02	0.0	9.000000e-02	3.000000e-02	0.0	1.000000e-01	3.000000e-02	0.0	1.100000e-01	3.000000e-02	0.0	1.200000e-01	3.000000e-02	0.0	1.300000e-01	3.000000e-02	0.0	1.400000e-01	3.000000e-02	0.0	1.500000e-01	3.000000e-02	0.0	1.600000e-01	3.000000e-02	0.0	1.700000e-01	3.000000e-02	0.0	1.800000e-01	3.000000e-02	0.0	1.900000e-01	3.000000e-02	0.0	2.000000e-01	3.000000e-02	0.0	2.100000e-01	3.000000e-02	0.0	2.200000e-01	3.000000e-02	0.0	2.300000e-01	3.000000e-02	0.0	2.400000e-01	3.000000e-02	0.0	2.500000e-01	3.000000e-02	0.0	2.600000e-01	3.000000
[...]
POINT_DATA 10201

SCALARS Height double 1
LOOKUP_TABLE default
9.993966e-01	9.994033e-01	9.994178e-01	9.994136e-01	9.994098e-01	9.994049e-01	9.993995e-01	9.993951e-01	9.993923e-01	9.993915e-01	9.993914e-01	9.993905e-01	9.993880e-01	9.993845e-01	9.993802e-01	9.993760e-01	9.993758e-01	9.993831e-01	9.993918e-01	9.994001e-01	9.994034e-01	9.993972e-01	9.993856e-01	9.993732e-01	9.993602e-01	9.993538e-01	9.993513e-01	9.993485e-01	9.993450e-01	9.993410e-01	9.993363e-01	9.993307e-01	9.993239e-01	9.993161e-01	9.993073e-01	9.992993e-01	9.992934e-01	9.992905e-01	9.992927e-01	9.993099e-01	9.993709e-01	9.995768e-01	1.000218e+00	1.001855e+00	1.005076e+00	1.009622e+00	1.014008e+00	1.016761e+00	1.017745e+00	1.017810e+00	1.017306e+00	1.015970e+00	1.013516e+00	1.010023e+00	1.005971e+00	1.001911e+00	9.982009e-01	9.950670e-01	9.926666e-01	9.910923e-01	9.902763e-01	9.899970e-01	9.899807e-01	9.901280e-01	9.905208e-01	9.912387e-01	9.922513e-01	9.933555e-01	9.943356e-01	9.950930e-01	9.956395e-01	9.960250e-01	9.962978e-01	9.964920e-01	9.966252e-01	9.967021e-01	9.967273e-01	9.967125e-01	9.966755e-01	9.966362e-01	9.966252e-01	9.967302e-01	9.972210e-01	9.986488e-01	1.001658e+00	1.006146e+00	1.010705e+00	1.013658e+00	1.014665e+00	1.014508e+00	1.013678e+00	1.011879e+00	1.008810e+00	1.004526e+00	9.995537e-01	9.945592e-01	9.901317e-01	9.865614e-01	9.839392e-01	9.824118e-01	9.815419e-01	9.994145e-01	9.994138e-01	9.994204e-01	9.994155e-01	9.994123e-01	9.994094e-01	9.994072e-01	9.994049e-01	9.994038e-01	9.994024e-01	9.993998e-01	9.993968e-01	9.993934e-01	9.993896e-01	9.993857e-01	9.993825e-01	9.993777e-01	9.993836e-01	9.993876e-01	9.993885e-01	9.993888e-01	9.993855e-01	9.993825e-01	9.993725e-01	9.993619e-01	9.993596e-01	9.993562e-01	9.993533e-01	9.993498e-01	9.993454e-01	9.993403e-01	9.993342e-01	9.993273e-01	9.993196e-01	9.993119e-01	9.993042e-01	9.992971e-01	9.992915e-01	9.992883e-01	9.992920e-01	9.993279e-01	9.994892e-01	1.000062e+00	1.001701e+00	1.005114e+00	1.009875e+00	1.014204e+00	1.016775e+00	1.017686e+00	1.017785e+00	1.017488e+00	1.016155e+00	1.013563e+00	1.009997e+00	1.005947e+00	1.001885e+00	9.981598e-01	9.950080e-01	9.926074e-01	9.910500e-01	9.902608e-01	9.899973e-01	9.899610e-01	9.900408e-01	9.904265e-01	9.912091e-01	9.922593e-01	9.933611e-01	9.943267e-01	9.950750e-01	9.956189e-01	9.960056e-01	9.962823e-01	9.964812e-01	9.966174e-01	9.966950e-01	9.967193e-01	9.967029e-01	9.966622e-01	9.966125e-01	9.965761e-01	9.966404e-01	9.970629e-01	9.984772e-01	1.001663e+00	1.006392e+00	1.010916e+00	1.013689e+00	1.014606e+00	1.014466e+00	1.013819e+00	1.012061e+00	1.008870e+00	1.004513e+00	9.995068e-01	9.944891e-01	9.900014e-01	9.864313e-01	9.838747e-01	9.823699e-01	9.814749e-01	9.994012e-01	9.993985e-01	9.994045e-01	9.994007e-01	9.993983e-01	9.993970e-01	9.993969e-01	9.993966e-01	9.993965e-01	9.993969e-01	9.993958e-01	9.993923e-01	9.993873e-01	9.993820e-01	9.993771e-01	9.993728e-01	9.993689e-01	9.993666e-01	9.993625e-01	9.993641e-01	9.993659e-01	9.993622e-01	9.993572e-01	9.993563e-01	9.993516e-01	9.993472e-01	9.993438e-01	9.993408e-01	9.993382e-01	9.993358e-01	9.993330e-01	9.993294e-01	9.993244e-01	9.993176e-01	9.993091e-01	9.993003e-01	9.992919e-01	9.992847e-01	9.992796e-01	9.992812e-01	9.993102e-01	9.994535e-01	1.000011e+00	1.001695e+00	1.005217e+00	1.009980e+00	1.014150e+00	1.016590e+00	1.017485e+00	1.017605e+00	1.017395e+00	1.016137e+00	1.013459e+00	1.009873e+00	1.005891e+00	1.001888e+00	9.981879e-01	9.950497e-01	9.926745e-01	9.911278e-01	9.903212e-01	9.900305e-01	9.899788e-01	9.900259e-01	9.903950e-01	9.912000e-01	9.922513e-01	9.933267e-01	9.942707e-01	9.950151e-01	9.955623e-01	9.959543e-01	9.962364e-01	9.964402e-01	9.965797e-01	9.966591e-01	9.966847e-01	9.966700e-01	9.966312e-01	9.965828e-01	9.965447e-01	9.965946e-01	9.970021e-01	9.984582e-01	1.001762e+00	1.006521e+00	1.010894e+00	1.013507e+00	1.014384e+00	1.014255e+00	1.013673e+00	1.012015e+00	1.008770e+00	1.004398e+00	9.994551e-01	9.944779e-01	9.900158e-01	9.865070e-01	9.839821e-01	9.824894e-01	9.815908e-01	9.994012e-01	9.993983e-01	9.994042e-01	9.994008e-01	9.993989e-01	9.993981e-01	9.993984e-01	9.993982e-01	9.993985e-01	9.993988e-01	9.993973e-01	9.993937e-01	9.993886e-01	9.993833e-01	9.993787e-01	9.993750e-01	9.993717e-01	9.993739e-01	9.993732e-01	9.993740e-01	9.993750e-01	9.993722e-01	9.993686e-01	9.993628e-01	9.993552e-01	9.993495e-01	9.993451e-01	9.993422e-01	9.993401e-01	9.993380e-01	9.993354e-01	9.993316e-01	9.993264e-01	9.993193e-01	9.993105e-01	9.993011e-01	9.992920e-01	9.992838e-01	9.992778e-01	9.992777e-01	9.993006e-01	9.994291e-01	9.999712e-01	1.001674e+00	1.005255e+00	1.010040e+00	1.014154e+00	1.016511e+00	1.017382e+00	1.017503e+00	1.017333e+00	1.016208e+00	1.013540e+00	1.009883e+00	1.005907e+00	1.001951e+00	9.982737e-01	9.951449e-01	9.927597e-01	9.911988e-01	9.903806e-01	9.900753e-01	9.900181e-01	9.900539e-01	9.903763e-01	9.911653e-01	9.922331e-01	9.933132e-01	9.942527e-01	9.949947e-01	9.955454e-01	9.959435e-01	9.962314e-01	9.964387e-01	9.965787e-01	9.966569e-01	9.966809e-01	9.966648e-01	9.966250e-01	9.965750e-01	9.965319e-01	9.965683e-01	9.969608e-01	9.984336e-01	1.001797e+00	1.006574e+00	1.010894e+00	1.013424e+00	1.014261e+00	1.014125e+00	1.013572e+00	1.012036e+00	1.008829e+00	1.004393e+00	9.994472e-01	9.945008e-01	9.900842e-01	9.866153e-01	9.840981e-01	9.826080e-01	9.817021e-01	9.994016e-01	9.993992e-01	9.994054e-01	9.994025e-01	9.994007e-01	9.994000e-01	9.993997e-01	9.993996e-01	9.993994e-01	9.993994e-01	9.993977e-01	9.993939e-01	9.993887e-01	9.993835e-01	9.993790e-01	9.993754e-01	9.993726e-01	9.993751e-01	9.993748e-01	9.993757e-01	9.993766e-01	9.993741e-01	9.993705e-01	9.993638e-01	9.993564e-01	9.993509e-01	9.993466e-01	9.993439e-01	9.993420e-01	9.993402e-01	9.993376e-01	9.993336e-01	9.993278e-01	9.993198e-01	9.993101e-01	9.992999e-01	9.992905e-01	9.992825e-01	9.992762e-01	9.992752e-01	9.992953e-01	9.994149e-01	9.999442e-01	1.001650e+00	1.005260e+00	1.010041e+00	1.014104e+00	1.016412e+00	1.017259e+00	1.017381e+00	1.017237e+00	1.016228e+00	1.013656e+00	1.009967e+00	1.005967e+00	1.002044e+00	9.984052e-01	9.952856e-01	9.928881e-01	9.913047e-01	9.904637e-01	9.901454e-01	9.900831e-01	9.901068e-01	9.903799e-01	9.911231e-01	9.921913e-01	9.932791e-01	9.942187e-01	9.949639e-01	9.955220e-01	9.959278e-01	9.962212e-01	9.964312e-01	9.965717e-01	9.966491e-01	9.966721e-01	9.966554e-01	9.966148e-01	9.965641e-01	9.965197e-01	9.965513e-01	9.969360e-01	9.984140e-01	1.001804e+00	1.006577e+00	1.010841e+00	1.013307e+00	1.014113e+00	1.013977e+00	1.013433e+00	1.011996e+00	1.008895e+00	1.004441e+00	9.994607e-01	9.945465e-01	9.901959e-01	9.867871e-01	9.842711e-01	9.827808e-01	9.818665e-01	9.994011e-01	9.993996e-01	9.994058e-01	9.994037e-01	9.994020e-01	9.994012e-01	9.994006e-01	9.994002e-01	9.994000e-01	9.993997e-01	9.993979e-01	9.993943e-01	9.993895e-01	9.993848e-01	9.993806e-01	9.993770e-01	9.993735e-01	9.993757e-01	9.993757e-01	9.993768e-01	9.993776e-01	9.993752e-01	9.993714e-01	9.993641e-01	9.993572e-01	9.993534e-01	9.993499e-01	9.993476e-01	9.993457e-01	9.993436e-01	9.993404e-01	9.993357e-01	9.993283e-01	9.993190e-01	9.993088e-01	9.992988e-01	9.992894e-01	9.992814e-01	9.992754e-01	9.992741e-01	9.992927e-01	9.994079e-01	9.999276e-01	1.001627e+00	1.005238e+00	1.009999e+00	1.014011e+00	1.016285e+00	1.017122e+00	1.017244e+00	1.017115e+00	1.016206e+00	1.013768e+00	1.010107e+00	1.006080e+00	1.002165e+00	9.985630e-01	9.954557e-01	9.930466e-01	9.914404e-01	9.905713e-01	9.902282e-01	9.901557e-01	9.901677e-01	9.903905e-01	9.910707e-01	9.921214e-01	9.932204e-01	9.941698e-01	9.949219e-01	9.954890e-01	9.959038e-01	9.962034e-01	9.964166e-01	9.965582e-01	9.966358e-01	9.966586e-01	9.966414e-01	9.966006e-01	9.965500e-01	9.965067e-01	9.965400e-01	9.969253e-01	9.984007e-01	1.001784e+00	1.006535e+00	1.010737e+00	1.013156e+00	1.013945e+00	1.013808e+00	1.013270e+00	1.011913e+00	1.008938e+00	1.004523e+00	9.995053e-01	9.946152e-01	9.903603e-01	9.870186e-01	9.845022e-01	9.830040e-01	9.820754e-01	9.993990e-01	9.993975e-01	9.994039e-01	9.994030e-01	9.994017e-01	9.994007e-01	9.994004e-01	9.993995e-01	9.993999e-01	9.993992e-01	9.993972e-01	9.993936e-01	9.993893e-01	9.993851e-01	9.993812e-01	9.993777e-01	9.993734e-01	9.993751e-01	9.993745e-01	9.993753e-01	9.993757e-01	9.993728e-01	9.993694e-01	9.993620e-01	9.993558e-01	9.993527e-01	9.993497e-01	9.993475e-01	9.993455e-01	9.993430e-01	9.993393e-01	9.993334e-01	9.993259e-01	9.993171e-01	9.993069e-01	9.992970e-01	9.992881e-01	9.992808e-01	9.992753e-01	9.992737e-01	9.992913e-01	9.994050e-01	9.999206e-01	1.001607e+00	1.005190e+00	1.009910e+00	1.013876e+00	1.016123e+00	1.016958e+00	1.017084e+00	1.016971e+00	1.016153e+00	1.013861e+00	1.010278e+00	1.006239e+00	1.002325e+00	9.987457e-01	9.956515e-01	9.932309e-01	9.915960e-01	9.906921e-01	9.903185e-01	9.902273e-01	9.902298e-01	9.903999e-01	9.910046e-01	9.920225e-01	9.931343e-01	9.941016e-01	9.948647e-01	9.954415e-01	9.958659e-01	9.961733e-01	9.963913e-01	9.965357e-01	9.966149e-01	9.966384e-01	9.966214e-01	9.965810e-01	9.965315e-01	9.964914e-01	9.965313e-01	9.969261e-01	9.983980e-01	1.001743e+00	1.006433e+00	1.010581e+00	1.012965e+00	1.013741e+00	1.013603e+00	1.013066e+00	1.011787e+00	1.008943e+00	1.004608e+00	9.995884e-01	9.947210e-01	9.905622e-01	9.872842e-01	9.847712e-01	9.832621e-01	9.823165e-01	9.993930e-01	9.993942e-01	9.994001e-01	9.993995e-01	9.993991e-01	9.993986e-01	9.993991e-01	9.993984e-01	9.993985e-01	9.993979e-01	9.993957e-01	9.993925e-01	9.993887e-01	9.993850e-01	9.993815e-01	9.993781e-01	9.993752e-01	9.993735e-01	9.993748e-01	9.993737e-01	9.993735e-01	9.993704e-01	9.993663e-01	9.993598e-01	9.993547e-01	9.993511e-01	9.993478e-01	9.993449e-01	9.993423e-01	9.993393e-01	9.993353e-01	9.993298e-01	9.993226e-01	9.993138e-01	9.993049e-01	9.992945e-01	9.992859e-01	9.992801e-01	9.992754e-01	9.992735e-01	9.992903e-01	9.994040e-01	9.999202e-01	1.001592e+00	1.005125e+00	1.009778e+00	1.013697e+00	1.015925e+00	1.016762e+00	1.016895e+00	1.016804e+00	1.016075e+00	1.013940e+00	1.010470e+00	1.006451e+00	1.002524e+00	9.989551e-01	9.958785e-01	9.934469e-01	9.917727e-01	9.908229e-01	9.904134e-01	9.903008e-01	9.902921e-01	9.904113e-01	9.909294e-01	9.918958e-01	9.930141e-01	9.940066e-01	9.947889e-01	9.953794e-01	9.958160e-01	9.961331e-01	9.963579e-01	9.965062e-01	9.965876e-01	9.966126e-01	9.965971e-01	9.965583e-01	9.965111e-01	9.964755e-01	9.965254e-01	9.969364e-01	9.984060e-01	1.001689e+00	1.006282e+00	1.010370e+00	1.012732e+00	1.013502e+00	1.013361e+00	1.012823e+00	1.011606e+00	1.008901e+00	1.004674e+00	9.996930e-01	9.948717e-01	9.907959e-01	9.875747e-01	9.850704e-01	9.835567e-01	9.825967e-01	9.993880e-01	9.993918e-01	9.993954e-01	9.993961e-01	9.993964e-01	9.993966e-01	9.993977e-01	9.993979e-01	9.993966e-01	9.993960e-01	9.993938e-01	9.993912e-01	9.993879e-01	9.993846e-01	9.993813e-01	9.993784e-01	9.993756e-01	9.993749e-01	9.993744e-01	9.993738e-01	9.993723e-01	9.993695e-01	9.993643e-01	9.993584e-01	9.993547e-01	9.993501e-01	9.993462e-01	9.993425e-01	9.993392e-01	9.993358e-01	9.993316e-01	9.993262e-01	9.993195e-01	9.993125e-01	9.993030e-01	9.992926e-01	9.992845e-01	9.992794e-01	9.992762e-01	9.992744e-01	9.992900e-01	9.994051e-01	9.999269e-01	1.001586e+00	1.005048e+00	1.009605e+00	1.013476e+00	1.015699e+00	1.016545e+00	1.016690e+00	1.016611e+00	1.015972e+00	1.014007e+00	1.010673e+00	1.006696e+00	1.002761e+00	9.991975e-01	9.961388e-01	9.937008e-01	9.919828e-01	9.909742e-01	9.905193e-01	9.903848e-01	9.903657e-01	9.904409e-01	9.908623e-01	9.917531e-01	9.928634e-01	9.938843e-01	9.946945e-01	9.953046e-01	9.957567e-01	9.960865e-01	9.963197e-01	9.964718e-01	9.965553e-01	9.965829e-01	9.965704e-01	9.965346e-01	9.964907e-01	9.964607e-01	9.965229e-01	9.969542e-01	9.984221e-01	1.001628e+00	1.006095e+00	1.010107e+00	1.012458e+00	1.013233e+00	1.013092e+00	1.012548e+00	1.011382e+00	1.008816e+00	1.004712e+00	9.998152e-01	9.950719e-01	9.910757e-01	9.879017e-01	9.854100e-01	9.838999e-01	9.829289e-01	9.993846e-01	9.993889e-01	9.993920e-01	9.993937e-01	9.993946e-01	9.993956e-01	9.993968e-01	9.993975e-01	9.993963e-01	9.993942e-01	9.993925e-01	9.993898e-01	9.993869e-01	9.993839e-01	9.993806e-01	9.993778e-01	9.993751e-01	9.993746e-01	9.993737e-01	9.993723e-01	9.993708e-01	9.993668e-01	9.993638e-01	9.993596e-01	9.993540e-01	9.993498e-01	9.993454e-01	9.993412e-01	9.993373e-01	9.993337e-01	9.993297e-01	9.993245e-01	9.993186e-01	9.993123e-01	9.993025e-01	9.992920e-01	9.992833e-01	9.992784e-01	9.992763e-01	9.992752e-01	9.992907e-01	9.994089e-01	9.999420e-01	1.001590e+00	1.004963e+00	1.009398e+00	1.013213e+00	1.015444e+00	1.016314e+00	1.016475e+00	1.016407e+00	1.015852e+00	1.014062e+00	1.010886e+00	1.006975e+00	1.003045e+00	9.994797e-01	9.964313e-01	9.939896e-01	9.922316e-01	9.911591e-01	9.906456e-01	9.904776e-01	9.904501e-01	9.904941e-01	9.908190e-01	9.916124e-01	9.926952e-01	9.937395e-01	9.945832e-01	9.952201e-01	9.956920e-01	9.960367e-01	9.962783e-01	9.964346e-01	9.965204e-01	9.965510e-01	9.965425e-01	9.965107e-01	9.964705e-01	9.964470e-01	9.965237e-01	9.969785e-01	9.984447e-01	1.001561e+00	1.005881e+00	1.009804e+00	1.012147e+00	1.012937e+00	1.012799e+00	1.012248e+00	1.011126e+00	1.008680e+00	1.004731e+00	9.999642e-01	9.953335e-01	9.914186e-01	9.882787e-01	9.857987e-01	9.842975e-01	9.833173e-01	9.993828e-01	9.993867e-01	9.993890e-01	9.993913e-01	9.993928e-01	9.993946e-01	9.993962e-01	9.993967e-01	9.993960e-01	9.993941e-01	9.993916e-01	9.993902e-01	9.993871e-01	9.993840e-01	9.993808e-01	9.993778e-01	9.993751e-01	9.993739e-01	9.993728e-01	9.993718e-01	9.993698e-01	9.993673e-01	9.993640e-01	9.993590e-01	9.993546e-01	9.993503e-01	9.993459e-01	9.993414e-01	9.993372e-01	9.993331e-01	9.993291e-01	9.993250e-01	9.993193e-01	9.993130e-01	9.993026e-01	9.992915e-01	9.992823e-01	9.992771e-01	9.992754e-01	9.992752e-01	9.992917e-01	9.994166e-01	9.999666e-01	1.001604e+00	1.004874e+00	1.009165e+00	1.012910e+00	1.015157e+00	1.016063e+00	1.016246e+00	1.016193e+00	1.015719e+00	1.014104e+00	1.011105e+00	1.007288e+00	1.003379e+00	9.998104e-01	9.967607e-01	9.943097e-01	9.925143e-01	9.913788e-01	9.908005e-01	9.905883e-01	9.905435e-01	9.905621e-01	9.907992e-01	9.914836e-01	9.925201e-01	9.935811e-01	9.944616e-01	9.951301e-01	9.956245e-01	9.959845e-01	9.962359e-01	9.963969e-01	9.964855e-01	9.965191e-01	9.965140e-01	9.964857e-01	9.964495e-01	9.964335e-01	9.965271e-01	9.970084e-01	9.984726e-01	1.001491e+00	1.005647e+00	1.009465e+00	1.011799e+00	1.012614e+00	1.012487e+00	1.011925e+00	1.010841e+00	1.008519e+00	1.004744e+00	1.000151e+00	9.956659e-01	9.918340e-01	9.887131e-01	9.862401e-01	9.847474e-01	9.837578e-01	9.993831e-01	9.993858e-01	9.993868e-01	9.993894e-01	9.993912e-01	9.993936e-01	9.993955e-01	9.993964e-01	9.993957e-01	9.993942e-01	9.993923e-01	9.993904e-01	9.993891e-01	9.993860e-01	9.993821e-01	9.993785e-01	9.993750e-01	9.993728e-01	9.993707e-01	9.993686e-01	9.993665e-01	9.993644e-01	9.993621e-01	9.993585e-01	9.993548e-01	9.993513e-01	9.993473e-01	9.993428e-01	9.993385e-01	9.993345e-01	9.993307e-01	9.993259e-01	9.993199e-01	9.993130e-01	9.993021e-01	9.992906e-01	9.992809e-01	9.992756e-01	9.992740e-01	9.992743e-01	9.992933e-01	9.994303e-01	1.000002e+00	1.001623e+00	1.004782e+00	1.008914e+00	1.012575e+00	1.014833e+00	1.015783e+00	1.015997e+00	1.015960e+00	1.015569e+00	1.014130e+00	1.011324e+00	1.007629e+00	1.003762e+00	1.000196e+00	9.971363e-01	9.946658e-01	9.928283e-01	9.916275e-01	9.909806e-01	9.907177e-01	9.906499e-01	9.906445e-01	9.908017e-01	9.913667e-01	9.923388e-01	9.934106e-01	9.943306e-01	9.950351e-01	9.955543e-01	9.959302e-01	9.961918e-01	9.963596e-01	9.964523e-01	9.964879e-01	9.964845e-01	9.964585e-01	9.964262e-01	9.964189e-01	9.965322e-01	9.970432e-01	9.985048e-01	1.001419e+00	1.005397e+00	1.009096e+00	1.011417e+00	1.012263e+00	1.012149e+00	1.011575e+00	1.010522e+00	1.008331e+00	1.004755e+00	1.000379e+00	9.960680e-01	9.923192e-01	9.892057e-01	9.867345e-01	9.852504e-01	9.842526e-01	9.993848e-01	9.993858e-01	9.993857e-01	9.993882e-01	9.993897e-01	9.993922e-01	9.993943e-01	9.993956e-01	9.993953e-01	9.993937e-01	9.993924e-01	9.993908e-01	9.993888e-01	9.993871e-01	9.993841e-01	9.993798e-01	9.993758e-01	9.993727e-01	9.993696e-01	9.993667e-01	9.993642e-01	9.993626e-01	9.993614e-01	9.993589e-01	9.993561e-01	9.993529e-01	9.993490e-01	9.993450e-01	9.993406e-01	9.993357e-01	9.993304e-01	9.993248e-01	9.993192e-01	9.993112e-01	9.993002e-01	9.992886e-01	9.992792e-01	9.992740e-01	9.992723e-01	9.992727e-01	9.992968e-01	9.994515e-01	1.000045e+00	1.001646e+00	1.004687e+00	1.008652e+00	1.012216e+00	1.014477e+00	1.015473e+00	1.015721e+00	1.015702e+00	1.015390e+00	1.014132e+00	1.011535e+00	1.007984e+00	1.004182e+00	1.000629e+00	9.975609e-01	9.950650e-01	9.931785e-01	9.919050e-01	9.911809e-01	9.908609e-01	9.907637e-01	9.907443e-01	9.908283e-01	9.912629e-01	9.921472e-01	9.932192e-01	9.941818e-01	9.949288e-01	9.954772e-01	9.958716e-01	9.961452e-01	9.963207e-01	9.964175e-01	9.964552e-01	9.964531e-01	9.964285e-01	9.963995e-01	9.964020e-01	9.965382e-01	9.970818e-01	9.985399e-01	1.001343e+00	1.005134e+00	1.008702e+00	1.011002e+00	1.011877e+00	1.011778e+00	1.011190e+00	1.010160e+00	1.008098e+00	1.004753e+00	1.000640e+00	9.965264e-01	9.928601e-01	9.897514e-01	9.872813e-01	9.858128e-01	9.848126e-01	9.993868e-01	9.993864e-01	9.993859e-01	9.993879e-01	9.993885e-01	9.993906e-01	9.993927e-01	9.993943e-01	9.993943e-01	9.993927e-01	9.993912e-01	9.993901e-01	9.993883e-01	9.993855e-01	9.993833e-01	9.993807e-01	9.993763e-01	9.993727e-01	9.993688e-01	9.993651e-01	9.993621e-01	9.993611e-01	9.993608e-01	9.993594e-01	9.993568e-01	9.993540e-01	9.993499e-01	9.993443e-01	9.993386e-01	9.993333e-01	9.993280e-01	9.993231e-01	9.993162e-01	9.993075e-01	9.992966e-01	9.992855e-01	9.992768e-01	9.992719e-01	9.992699e-01	9.992705e-01	9.993032e-01	9.994797e-01	1.000094e+00	1.001673e+00	1.004592e+00	1.008380e+00	1.011839e+00	1.014097e+00	1.015136e+00	1.015419e+00	1.015417e+00	1.015177e+00	1.014098e+00	1.011726e+00	1.008340e+00	1.004620e+00	1.001096e+00	9.980260e-01	9.955060e-01	9.935684e-01	9.922164e-01	9.914046e-01	9.910149e-01	9.908807e-01	9.908485e-01	9.908786e-01	9.911800e-01	9.919452e-01	9.929966e-01	9.940024e-01	9.948000e-01	9.953858e-01	9.958039e-01	9.960921e-01	9.962767e-01	9.963779e-01	9.964169e-01	9.964149e-01	9.963913e-01	9.963664e-01	9.963808e-01	9.965430e-01	9.971218e-01	9.985746e-01	1.001262e+00	1.004858e+00	1.008285e+00	1.010555e+00	1.011455e+00	1.011368e+00	1.010758e+00	1.009734e+00	1.007805e+00	1.004727e+00	1.000920e+00	9.970208e-01	9.934378e-01	9.903390e-01	9.878797e-01	9.864409e-01	9.854492e-01	9.993876e-01	9.993866e-01	9.993866e-01	9.993877e-01	9.993875e-01	9.993888e-01	9.993904e-01	9.993920e-01	9.993921e-01	9.993904e-01	9.993884e-01	9.993870e-01	9.993857e-01	9.993837e-01	9.993806e-01	9.993790e-01	9.993760e-01	9.993722e-01	9.993681e-01	9.993637e-01	9.993602e-01	9.993595e-01	9.993600e-01	9.993590e-01	9.993573e-01	9.993532e-01	9.993474e-01	9.993411e-01	9.993353e-01	9.993303e-01	9.993252e-01	9.993190e-01	9.993116e-01	9.993025e-01	9.992919e-01	9.992817e-01	9.992735e-01	9.992685e-01	9.992659e-01	9.992677e-01	9.993115e-01	9.995103e-01	1.000147e+00	1.001704e+00	1.004498e+00	1.008102e+00	1.011445e+00	1.013696e+00	1.014776e+00	1.015095e+00	1.015108e+00	1.014928e+00	1.014026e+00	1.011890e+00	1.008686e+00	1.005064e+00	1.001580e+00	9.985178e-01	9.959790e-01	9.939931e-01	9.925633e-01	9.916582e-01	9.911864e-01	9.910010e-01	9.909515e-01	9.909473e-01	9.911269e-01	9.917424e-01	9.927406e-01	9.937820e-01	9.946385e-01	9.952721e-01	9.957214e-01	9.960281e-01	9.962229e-01	9.963291e-01	9.963698e-01	9.963683e-01	9.963459e-01	9.963256e-01	9.963532e-01	9.965443e-01	9.971596e-01	9.986059e-01	1.001175e+00	1.004568e+00	1.007843e+00	1.010074e+00	1.010993e+00	1.010913e+00	1.010272e+00	1.009241e+00	1.007446e+00	1.004678e+00	1.001212e+00	9.975357e-01	9.940362e-01	9.909593e-01	9.885295e-01	9.871348e-01	9.861629e-01	9.993866e-01	9.993852e-01	9.993866e-01	9.993869e-01	9.993862e-01	9.993866e-01	9.993876e-01	9.993887e-01	9.993886e-01	9.993866e-01	9.993842e-01	9.993822e-01	9.993810e-01	9.993800e-01	9.993784e-01	9.993755e-01	9.993742e-01	9.993712e-01	9.993667