# vtk DataFile Version 3.0
vtk output
ASCII
DATASET STRUCTURED_GRID
DIMENSIONS 101 101 1
POINTS 10201 double
0.000000e+00	0.000000e+00	0.0	1.000000e-02	0.000000e+00	0.0	2.000000e-02	0.000000e+00	0.0	3.000000e-02	0.000000e+00	0.0	4.000000e-02	0.000000e+00	0.0	5.000000e-02	0.000000e+00	0.0	6.000000e-02	0.000000e+00	0.0	7.000000e-02	0.000000e+00	0.0	8.000000e-02	0.000000e+00	0.0	9.000000e-02	0.000000e+00	0.0	1.000000e-01	0.000000e+00	0.0	1.100000e-01	0.000000e+00	0.0	1.200000e-01	0.000000e+00	0.0	1.300000e-01	0.000000e+00	0.0	1.400000e-01	0.000000e+00	0.0	1.500000e-01	0.000000e+00	0.0	1.600000e-01	0.000000e+00	0.0	1.700000e-01	0.000000e+00	0.0	1.800000e-01	0.000000e+00	0.0	1.900000e-01	0.000000e+00	0.0	2.000000e-01	0.000000e+00	0.0	2.100000e-01	0.000000e+00	0.0	2.200000e-01	0.000000e+00	0.0	2.300000e-01	0.000000e+00	0.0	2.400000e-01	0.000000e+00	0.0	2.500000e-01	0.000000e+00	0.0	2.600000e-01	0.000000e+00	0.0	2.700000e-01	0.000000e+00	0.0	2.800000e-01	0.000000e+00	0.0	2.900000e-01	0.000000e+00	0.0	3.000000e-01	0.000000e+00	0.0	3.100000e-01	0.000000e+00	0.0	3.200000e-01	0.000000e+00	0.0	3.300000e-01	0.000000e+00	0.0	3.400000e-01	0.000000e+00	0.0	3.500000e-01	0.000000e+00	0.0	3.600000e-01	0.000000e+00	0.0	3.700000e-01	0.000000e+00	0.0	3.800000e-01	0.000000e+00	0.0	3.900000e-01	0.000000e+00	0.0	4.000000e-01	0.000000e+00	0.0	4.100000e-01	0.000000e+00	0.0	4.200000e-01	0.000000e+00	0.0	4.300000e-01	0.000000e+00	0.0	4.400000e-01	0.000000e+00	0.0	4.500000e-01	0.000000e+00	0.0	4.600000e-01	0.000000e+00	0.0	4.700000e-01	0.000000e+00	0.0	4.800000e-01	0.000000e+00	0.0	4.900000e-01	0.000000e+00	0.0	5.000000e-01	0.000000e+00	0.0	5.100000e-01	0.000000e+00	0.0	5.200000e-01	0.000000e+00	0.0	5.300000e-01	0.000000e+00	0.0	5.400000e-01	0.000000e+00	0.0	5.500000e-01	0.000000e+00	0.0	5.600000e-01	0.000000e+00	0.0	5.700000e-01	0.000000e+00	0.0	5.800000e-01	0.000000e+00	0.0	5.900000e-01	0.000000e+00	0.0	6.000000e-01	0.000000e+00	0.0	6.100000e-01	0.000000e+00	0.0	6.200000e-01	0.000000e+00	0.0	6.300000e-01	0.000000e+00	0.0	6.400000e-01	0.000000e+00	0.0	6.500000e-01	0.000000e+00	0.0	6.600000e-01	0.000000e+00	0.0	6.700000e-01	0.000000e+00	0.0	6.800000e-01	0.000000e+00	0.0	6.900000e-01	0.000000e+00	0.0	7.000000e-01	0.000000e+00	0.0	7.100000e-01	0.000000e+00	0.0	7.200000e-01	0.000000e+00	0.0	7.300000e-01	0.000000e+00	0.0	7.400000e-01	0.000000e+00	0.0	7.500000e-01	0.000000e+00	0.0	7.600000e-01	0.000000e+00	0.0	7.700000e-01	0.000000e+00	0.0	7.800000e-01	0.000000e+00	0.0	7.900000e-01	0.000000e+00	0.0	8.000000e-01	0.000000e+00	0.0	8.100000e-01	0.000000e+00	0.0	8.200000e-01	0.000000e+00	0.0	8.300000e-01	0.000000e+00	0.0	8.400000e-01	0.000000e+00	0.0	8.500000e-01	0.000000e+00	0.0	8.600000e-01	0.000000e+00	0.0	8.700000e-01	0.000000e+00	0.0	8.800000e-01	0.000000e+00	0.0	8.900000e-01	0.000000e+00	0.0	9.000000e-01	0.000000e+00	0.0	9.100000e-01	0.000000e+00	0.0	9.200000e-01	0.000000e+00	0.0	9.300000e-01	0.000000e+00	0.0	9.400000e-01	0.000000e+00	0.0	9.500000e-01	0.000000e+00	0.0	9.600000e-01	0.000000e+00	0.0	9.700000e-01	0.000000e+00	0.0	9.800000e-01	0.000000e+00	0.0	9.900000e-01	0.000000e+00	0.0	1.000000e+00	0.000000e+00	0.0	0.000000e+00	1.000000e-02	0.0	1.000000e-02	1.000000e-02	0.0	2.000000e-02	1.000000e-02	0.0	3.000000e-02	1.000000e-02	0.0	4.000000e-02	1.000000e-02	0.0	5.000000e-02	1.000000e-02	0.0	6.000000e-02	1.000000e-02	0.0	7.000000e-02	1.000000e-02	0.0	8.000000e-02	1.000000e-02	0.0	9.000000e-02	1.000000e-02	0.0	1.000000e-01	1.000000e-02	0.0	1.100000e-01	1.000000e-02	0.0	1.200000e-01	1.000000e-02	0.0	1.300000e-01	1.000000e-02	0.0	1.400000e-01	1.000000e-02	0.0	1.500000e-01	1.000000e-02	0.0	1.600000e-01	1.000000e-02	0.0	1.700000e-01	1.000000e-02	0.0	1.800000e-01	1.000000e-02	0.0	1.900000e-01	1.000000e-02	0.0	2.000000e-01	1.000000e-02	0.0	2.100000e-01	1.000000e-02	0.0	2.200000e-01	1.000000e-02	0.0	2.300000e-01	1.000000e-02	0.0	2.400000e-01	1.000000e-02	0.0	2.500000e-01	1.000000e-02	0.0	2.600000e-01	1.000000e-02	0.0	2.700000e-01	1.000000e-02	0.0	2.800000e-01	1.000000e-02	0.0	2.900000e-01	1.000000e-02	0.0	3.000000e-01	1.000000e-02	0.0	3.100000e-01	1.000000e-02	0.0	3.200000e-01	1.000000e-02	0.0	3.300000e-01	1.000000e-02	0.0	3.400000e-01	1.000000e-02	0.0	3.500000e-01	1.000000e-02	0.0	3.600000e-01	1.000000e-02	0.0	3.700000e-01	1.000000e-02	0.0	3.800000e-01	1.000000e-02	0.0	3.900000e-01	1.000000e-02	0.0	4.000000e-01	1.000000e-02	0.0	4.100000e-01	1.000000e-02	0.0	4.200000e-01	1.000000e-02	0.0	4.300000e-01	1.000000e-02	0.0	4.400000e-01	1.000000e-02	0.0	4.500000e-01	1.000000e-02	0.0	4.600000e-01	1.000000e-02	0.0	4.700000e-01	1.000000e-02	0.0	4.800000e-01	1.000000e-02	0.0	4.900000e-01	1.000000e-02	0.0	5.000000e-01	1.000000e-02	0.0	5.100000e-01	1.000000e-02	0.0	5.200000e-01	1.000000e-02	0.0	5.300000e-01	1.000000e-02	0.0	5.400000e-01	1.000000e-02	0.0	5.500000e-01	1.000000e-02	0.0	5.600000e-01	1.000000e-02	0.0	5.700000e-01	1.000000e-02	0.0	5.800000e-01	1.000000e-02	0.0	5.900000e-01	1.000000e-02	0.0	6.000000e-01	1.000000e-02	0.0	6.100000e-01	1.000000e-02	0.0	6.200000e-01	1.000000e-02	0.0	6.300000e-01	1.000000e-02	0.0	6.400000e-01	1.000000e-02	0.0	6.500000e-01	1.000000e-02	0.0	6.600000e-01	1.000000e-02	0.0	6.700000e-01	1.000000e-02	0.0	6.800000e-01	1.000000e-02	0.0	6.900000e-01	1.000000e-02	0.0	7.000000e-01	1.000000e-02	0.0	7.100000e-01	1.000000e-02	0.0	7.200000e-01	1.000000e-02	0.0	7.300000e-01	1.000000e-02	0.0	7.400000e-01	1.000000e-02	0.0	7.500000e-01	1.000000e-02	0.0	7.600000e-01	1.000000e-02	0.0	7.700000e-01	1.000000e-02	0.0	7.800000e-01	1.000000e-02	0.0	7.900000e-01	1.000000e-02	0.0	8.000000e-01	1.000000e-02	0.0	8.100000e-01	1.000000e-02	0.0	8.200000e-01	1.000000e-02	0.0	8.300000e-01	1.000000e-02	0.0	8.400000e-01	1.000000e-02	0.0	8.500000e-01	1.000000e-02	0.0	8.600000e-01	1.000000e-02	0.0	8.700000e-01	1.000000e-02	0.0	8.800000e-01	1.000000e-02	0.0	8.900000e-01	1.000000e-02	0.0	9.000000e-01	1.000000e-02	0.0	9.100000e-01	1.000000e-02	0.0	9.200000e-01	1.000000e-02	0.0	9.300000e-01	1.000000e-02	0.0	9.400000e-01	1.000000e-02	0.0	9.500000e-01	1.000000e-02	0.0	9.600000e-01	1.000000e-02	0.0	9.700000e-01	1.000000e-02	0.0	9.800000e-01	1.000000e-02	0.0	9.900000e-01	1.000000e-02	0.0	1.000000e+00	1.000000e-02	0.0	0.000000e+00	2.000000e-02	0.0	1.000000e-02	2.000000e-02	0.0	2.000000e-02	2.000000e-02	0.0	3.000000e-02	2.000000e-02	0.0	4.000000e-02	2.000000e-02	0.0	5.000000e-02	2.000000e-02	0.0	6.000000e-02	2.000000e-02	0.0	7.000000e-02	2.000000e-02	0.0	8.000000e-02	2.000000e-02	0.0	9.000000e-02	2.000000e-02	0.0	1.000000e-01	2.000000e-02	0.0	1.100000e-01	2.000000e-02	0.0	1.200000e-01	2.000000e-02	0.0	1.300000e-01	2.000000e-02	0.0	1.400000e-01	2.000000e-02	0.0	1.500000e-01	2.000000e-02	0.0	1.600000e-01	2.000000e-02	0.0	1.700000e-01	2.000000e-02	0.0	1.800000e-01	2.000000e-02	0.0	1.900000e-01	2.000000e-02	0.0	2.000000e-01	2.000000e-02	0.0	2.100000e-01	2.000000e-02	0.0	2.200000e-01	2.000000e-02	0.0	2.300000e-01	2.000000e-02	0.0	2.400000e-01	2.000000e-02	0.0	2.500000e-01	2.000000e-02	0.0	2.600000e-01	2.000000e-02	0.0	2.700000e-01	2.000000e-02	0.0	2.800000e-01	2.000000e-02	0.0	2.900000e-01	2.000000e-02	0.0	3.000000e-01	2.000000e-02	0.0	3.100000e-01	2.000000e-02	0.0	3.200000e-01	2.000000e-02	0.0	3.300000e-01	2.000000e-02	0.0	3.400000e-01	2.000000e-02	0.0	3.500000e-01	2.000000e-02	0.0	3.600000e-01	2.000000e-02	0.0	3.700000e-01	2.000000e-02	0.0	3.800000e-01	2.000000e-02	0.0	3.900000e-01	2.000000e-02	0.0	4.000000e-01	2.000000e-02	0.0	4.100000e-01	2.000000e-02	0.0	4.200000e-01	2.000000e-02	0.0	4.300000e-01	2.000000e-02	0.0	4.400000e-01	2.000000e-02	0.0	4.500000e-01	2.000000e-02	0.0	4.600000e-01	2.000000e-02	0.0	4.700000e-01	2.000000e-02	0.0	4.800000e-01	2.000000e-02	0.0	4.900000e-01	2.000000e-02	0.0	5.000000e-01	2.000000e-02	0.0	5.100000e-01	2.000000e-02	0.0	5.200000e-01	2.000000e-02	0.0	5.300000e-01	2.000000e-02	0.0	5.400000e-01	2.000000e-02	0.0	5.500000e-01	2.000000e-02	0.0	5.600000e-01	2.000000e-02	0.0	5.700000e-01	2.000000e-02	0.0	5.800000e-01	2.000000e-02	0.0	5.900000e-01	2.000000e-02	0.0	6.000000e-01	2.000000e-02	0.0	6.100000e-01	2.000000e-02	0.0	6.200000e-01	2.000000e-02	0.0	6.300000e-01	2.000000e-02	0.0	6.400000e-01	2.000000e-02	0.0	6.500000e-01	2.000000e-02	0.0	6.600000e-01	2.000000e-02	0.0	6.700000e-01	2.000000e-02	0.0	6.800000e-01	2.000000e-02	0.0	6.900000e-01	2.000000e-02	0.0	7.000000e-01	2.000000e-02	0.0	7.100000e-01	2.000000e-02	0.0	7.200000e-01	2.000000e-02	0.0	7.300000e-01	2.000000e-02	0.0	7.400000e-01	2.000000e-02	0.0	7.500000e-01	2.000000e-02	0.0	7.600000e-01	2.000000e-02	0.0	7.700000e-01	2.000000e-02	0.0	7.800000e-01	2.000000e-02	0.0	7.900000e-01	2.000000e-02	0.0	8.000000e-01	2.000000e-02	0.0	8.100000e-01	2.000000e-02	0.0	8.200000e-01	2.000000e-02	0.0	8.300000e-01	2.000000e-02	0.0	8.400000e-01	2.000000e-02	0.0	8.500000e-01	2.000000e-02	0.0	8.600000e-01	2.000000e-02	0.0	8.700000e-01	2.000000e-02	0.0	8.800000e-01	2.000000e-02	0.0	8.900000e-01	2.000000e-02	0.0	9.000000e-01	2.000000e-02	0.0	9.100000e-01	2.000000e-02	0.0	9.200000e-01	2.000000e-02	0.0	9.300000e-01	2.000000e-02	0.0	9.400000e-01	2.000000e-02	0.0	9.500000e-01	2.000000e-02	0.0	9.600000e-01	2.000000e-02	0.0	9.700000e-01	2.000000e-02	0.0	9.800000e-01	2.000000e-02	0.0	9.900000e-01	2.000000e-02	0.0	1.000000e+00	2.000000e-02	0.0	0.000000e+00	3.000000e-02	0.0	1.000000e-02	3.000000e-02	0.0	2.000000e-02	3.000000e-02	0.0	3.000000e-02	3.000000e-02	0.0	4.000000e-02	3.000000e-02	0.0	5.000000e-02	3.000000e-02	0.0	6.000000e-02	3.000000e-02	0.0	7.000000e-02	3.000000e-02	0.0	8.000000e-02	3.000000e-02	0.0	9.000000e-02	3.000000e-02	0.0	1.000000e-01	3.000000e-02	0.0	1.100000e-01	3.000000e-02	0.0	1.200000e-01	3.000000e-02	0.0	1.300000e-01	3.000000e-02	0.0	1.400000e-01	3.000000e-02	0.0	1.500000e-01	3.000000e-02	0.0	1.600000e-01	3.000000e-02	0.0	1.700000e-01	3.000000e-02	0.0	1.800000e-01	3.000000e-02	0.0	1.900000e-01	3.000000e-02	0.0	2.000000e-01	3.000000e-02	0.0	2.100000e-01	3.000000e-02	0.0	2.200000e-01	3.000000e-02	0.0	2.300000e-01	3.000000e-02	0.0	2.400000e-01	3.000000e-02	0.0	2.500000e-01	3.000000e-02	0.0	2.600000e-01	3.000000
[...]
POINT_DATA 10201

SCALARS Height double 1
LOOKUP_TABLE default
9.814301e-01	9.805484e-01	9.790475e-01	9.764149e-01	9.735073e-01	9.709858e-01	9.692316e-01	9.685258e-01	9.688357e-01	9.705207e-01	9.739637e-01	9.791157e-01	9.863154e-01	9.958305e-01	1.007288e+00	1.019303e+00	1.030069e+00	1.038345e+00	1.043632e+00	1.045560e+00	1.043771e+00	1.034454e+00	1.018632e+00	1.005155e+00	9.982961e-01	9.958674e-01	9.951626e-01	9.949699e-01	9.949051e-01	9.948475e-01	9.947490e-01	9.945945e-01	9.943898e-01	9.941469e-01	9.938672e-01	9.935481e-01	9.931813e-01	9.927572e-01	9.922635e-01	9.916559e-01	9.908117e-01	9.894789e-01	9.873325e-01	9.842566e-01	9.806473e-01	9.773372e-01	9.750682e-01	9.740443e-01	9.740393e-01	9.752923e-01	9.782581e-01	9.829158e-01	9.896719e-01	9.989711e-01	1.010596e+00	1.023106e+00	1.034383e+00	1.042917e+00	1.048363e+00	1.050522e+00	1.049085e+00	1.040349e+00	1.024393e+00	1.010226e+00	1.003115e+00	1.000779e+00	1.000181e+00	1.000043e+00	1.000011e+00	1.000003e+00	1.000001e+00	1.000000e+00	1.000000e+00	1.000000e+00	1.000000e+00	1.000000e+00	1.000000e+00	1.000000e+00	1.000000e+00	1.000000e+00	1.000000e+00	1.000000e+00	1.000000e+00	1.000000e+00	1.000000e+00	1.000000e+00	1.000000e+00	1.000000e+00	1.000000e+00	1.000000e+00	1.000000e+00	1.000000e+00	1.000000e+00	1.000000e+00	1.000000e+00	1.000000e+00	1.000000e+00	1.000000e+00	1.000000e+00	1.000000e+00	1.000000e+00	9.805484e-01	9.796122e-01	9.782600e-01	9.757279e-01	9.729531e-01	9.705372e-01	9.689748e-01	9.686593e-01	9.690702e-01	9.707899e-01	9.744277e-01	9.798266e-01	9.871407e-01	9.966270e-01	1.007931e+00	1.019884e+00	1.030848e+00	1.039352e+00	1.043953e+00	1.044919e+00	1.043100e+00	1.034127e+00	1.018327e+00	1.004339e+00	9.976520e-01	9.955631e-01	9.950189e-01	9.948751e-01	9.948198e-01	9.947620e-01	9.946628e-01	9.945076e-01	9.943004e-01	9.940508e-01	9.937643e-01	9.934339e-01	9.930546e-01	9.926103e-01	9.920725e-01	9.913747e-01	9.903831e-01	9.888767e-01	9.866098e-01	9.835312e-01	9.800420e-01	9.769678e-01	9.750259e-01	9.742850e-01	9.743625e-01	9.756319e-01	9.787353e-01	9.836522e-01	9.905747e-01	9.998956e-01	1.011364e+00	1.023750e+00	1.035193e+00	1.044064e+00	1.048947e+00	1.050025e+00	1.048488e+00	1.040032e+00	1.024257e+00	1.009634e+00	1.002574e+00	1.000533e+00	1.000105e+00	1.000024e+00	1.000007e+00	1.000002e+00	1.000001e+00	1.000000e+00	1.000000e+00	1.000000e+00	1.000000e+00	1.000000e+00	1.000000e+00	1.000000e+00	1.000000e+00	1.000000e+00	1.000000e+00	1.000000e+00	1.000000e+00	1.000000e+00	1.000000e+00	1.000000e+00	1.000000e+00	1.000000e+00	1.000000e+00	1.000000e+00	1.000000e+00	1.000000e+00	1.000000e+00	1.000000e+00	1.000000e+00	1.000000e+00	1.000000e+00	1.000000e+00	1.000000e+00	1.000000e+00	1.000000e+00	9.790475e-01	9.782600e-01	9.774177e-01	9.755419e-01	9.734687e-01	9.715905e-01	9.704712e-01	9.701098e-01	9.704670e-01	9.719718e-01	9.755314e-01	9.810878e-01	9.883282e-01	9.972342e-01	1.007616e+00	1.018958e+00	1.029844e+00	1.037824e+00	1.041585e+00	1.042137e+00	1.040229e+00	1.032266e+00	1.019177e+00	1.006923e+00	9.993308e-01	9.961260e-01	9.951459e-01	9.948782e-01	9.947789e-01	9.947043e-01	9.946052e-01	9.944605e-01	9.942630e-01	9.940153e-01	9.937240e-01	9.933822e-01	9.929825e-01	9.924980e-01	9.918608e-01	9.909724e-01	9.897009e-01	9.879374e-01	9.857017e-01	9.831663e-01	9.806442e-01	9.784374e-01	9.766734e-01	9.757931e-01	9.757469e-01	9.767013e-01	9.797703e-01	9.849702e-01	9.919556e-01	1.000754e+00	1.011224e+00	1.022791e+00	1.034111e+00	1.042647e+00	1.046609e+00	1.047253e+00	1.045560e+00	1.038030e+00	1.025053e+00	1.012361e+00	1.004259e+00	1.001008e+00	1.000186e+00	1.000035e+00	1.000008e+00	1.000002e+00	1.000001e+00	1.000000e+00	1.000000e+00	1.000000e+00	1.000000e+00	1.000000e+00	1.000000e+00	1.000000e+00	1.000000e+00	1.000000e+00	1.000000e+00	1.000000e+00	1.000000e+00	1.000000e+00	1.000000e+00	1.000000e+00	1.000000e+00	1.000000e+00	1.000000e+00	1.000000e+00	1.000000e+00	1.000000e+00	1.000000e+00	1.000000e+00	1.000000e+00	1.000000e+00	1.000000e+00	1.000000e+00	1.000000e+00	1.000000e+00	1.000000e+00	9.764149e-01	9.757279e-01	9.755419e-01	9.744683e-01	9.733053e-01	9.723627e-01	9.718253e-01	9.718211e-01	9.723909e-01	9.742000e-01	9.779052e-01	9.834535e-01	9.906747e-01	9.991526e-01	1.008673e+00	1.019043e+00	1.029069e+00	1.036090e+00	1.038722e+00	1.038718e+00	1.035987e+00	1.028549e+00	1.018597e+00	1.009100e+00	1.001509e+00	9.970831e-01	9.953444e-01	9.948255e-01	9.946454e-01	9.945383e-01	9.944258e-01	9.942773e-01	9.940759e-01	9.938154e-01	9.934953e-01	9.931126e-01	9.926407e-01	9.920319e-01	9.911875e-01	9.899765e-01	9.883225e-01	9.863101e-01	9.842487e-01	9.824885e-01	9.810211e-01	9.795175e-01	9.782333e-01	9.777016e-01	9.778124e-01	9.789364e-01	9.821035e-01	9.874236e-01	9.945435e-01	1.002991e+00	1.012586e+00	1.023131e+00	1.033498e+00	1.040914e+00	1.043936e+00	1.044032e+00	1.041485e+00	1.034196e+00	1.024292e+00	1.014713e+00	1.006780e+00	1.002062e+00	1.000415e+00	1.000068e+00	1.000013e+00	1.000003e+00	1.000001e+00	1.000000e+00	1.000000e+00	1.000000e+00	1.000000e+00	1.000000e+00	1.000000e+00	1.000000e+00	1.000000e+00	1.000000e+00	1.000000e+00	1.000000e+00	1.000000e+00	1.000000e+00	1.000000e+00	1.000000e+00	1.000000e+00	1.000000e+00	1.000000e+00	1.000000e+00	1.000000e+00	1.000000e+00	1.000000e+00	1.000000e+00	1.000000e+00	1.000000e+00	1.000000e+00	1.000000e+00	1.000000e+00	1.000000e+00	1.000000e+00	9.735073e-01	9.729531e-01	9.734687e-01	9.733053e-01	9.732294e-01	9.733779e-01	9.735756e-01	9.740196e-01	9.749138e-01	9.771585e-01	9.811597e-01	9.867522e-01	9.936376e-01	1.001470e+00	1.009932e+00	1.018805e+00	1.027223e+00	1.033124e+00	1.034656e+00	1.034228e+00	1.030933e+00	1.024515e+00	1.017782e+00	1.011193e+00	1.004278e+00	9.986173e-01	9.957594e-01	9.947886e-01	9.944691e-01	9.943086e-01	9.941693e-01	9.939999e-01	9.937775e-01	9.934810e-01	9.931006e-01	9.926238e-01	9.920066e-01	9.911612e-01	9.899939e-01	9.884164e-01	9.865328e-01	9.846993e-01	9.833246e-01	9.824101e-01	9.816271e-01	9.807782e-01	9.801750e-01	9.800925e-01	9.804204e-01	9.819596e-01	9.855537e-01	9.910348e-01	9.979041e-01	1.005779e+00	1.014333e+00	1.023283e+00	1.031782e+00	1.038099e+00	1.040065e+00	1.039720e+00	1.036592e+00	1.030103e+00	1.023300e+00	1.016886e+00	1.009913e+00	1.003868e+00	1.000922e+00	1.000155e+00	1.000025e+00	1.000005e+00	1.000001e+00	1.000000e+00	1.000000e+00	1.000000e+00	1.000000e+00	1.000000e+00	1.000000e+00	1.000000e+00	1.000000e+00	1.000000e+00	1.000000e+00	1.000000e+00	1.000000e+00	1.000000e+00	1.000000e+00	1.000000e+00	1.000000e+00	1.000000e+00	1.000000e+00	1.000000e+00	1.000000e+00	1.000000e+00	1.000000e+00	1.000000e+00	1.000000e+00	1.000000e+00	1.000000e+00	1.000000e+00	1.000000e+00	1.000000e+00	1.000000e+00	9.709858e-01	9.705372e-01	9.715905e-01	9.723627e-01	9.733779e-01	9.743903e-01	9.753999e-01	9.764565e-01	9.780719e-01	9.808753e-01	9.851301e-01	9.906350e-01	9.969879e-01	1.003914e+00	1.011087e+00	1.018136e+00	1.024738e+00	1.028672e+00	1.029483e+00	1.028728e+00	1.025445e+00	1.020834e+00	1.016901e+00	1.012817e+00	1.007032e+00	1.000579e+00	9.964060e-01	9.947727e-01	9.942334e-01	9.939891e-01	9.938003e-01	9.935834e-01	9.933016e-01	9.929270e-01	9.924286e-01	9.917696e-01	9.909006e-01	9.897376e-01	9.882289e-01	9.865222e-01	9.849283e-01	9.837991e-01	9.831414e-01	9.826910e-01	9.823425e-01	9.823192e-01	9.824869e-01	9.828510e-01	9.837578e-01	9.859628e-01	9.899369e-01	9.954426e-01	1.001925e+00	1.008935e+00	1.016085e+00	1.022988e+00	1.029466e+00	1.033966e+00	1.035082e+00	1.034418e+00	1.031227e+00	1.026423e+00	1.022447e+00	1.018589e+00	1.012998e+00	1.006262e+00	1.001813e+00	1.000340e+00	1.000053e+00	1.000009e+00	1.000002e+00	1.000001e+00	1.000000e+00	1.000000e+00	1.000000e+00	1.000000e+00	1.000000e+00	1.000000e+00	1.000000e+00	1.000000e+00	1.000000e+00	1.000000e+00	1.000000e+00	1.000000e+00	1.000000e+00	1.000000e+00	1.000000e+00	1.000000e+00	1.000000e+00	1.000000e+00	1.000000e+00	1.000000e+00	1.000000e+00	1.000000e+00	1.000000e+00	1.000000e+00	1.000000e+00	1.000000e+00	1.000000e+00	1.000000e+00	1.000000e+00	9.692316e-01	9.689748e-01	9.704712e-01	9.718253e-01	9.735756e-01	9.753999e-01	9.772123e-01	9.791549e-01	9.816648e-01	9.850949e-01	9.895280e-01	9.947343e-01	1.000324e+00	1.006000e+00	1.011643e+00	1.016951e+00	1.020964e+00	1.022803e+00	1.023132e+00	1.022467e+00	1.020395e+00	1.018009e+00	1.016235e+00	1.013957e+00	1.009343e+00	1.002652e+00	9.972448e-01	9.947645e-01	9.938959e-01	9.935193e-01	9.932420e-01	9.929348e-01	9.925350e-01	9.920082e-01	9.913121e-01	9.903952e-01	9.892173e-01	9.878088e-01	9.863245e-01	9.850360e-01	9.841589e-01	9.836646e-01	9.833379e-01	9.832441e-01	9.835051e-01	9.841792e-01	9.851074e-01	9.862375e-01	9.879957e-01	9.909160e-01	9.951916e-01	1.000509e+00	1.006259e+00	1.011911e+00	1.017195e+00	1.021979e+00	1.026215e+00	1.028488e+00	1.028980e+00	1.028345e+00	1.026240e+00	1.023702e+00	1.021945e+00	1.019848e+00	1.015614e+00	1.008890e+00	1.003120e+00	1.000678e+00	1.000111e+00	1.000018e+00	1.000004e+00	1.000001e+00	1.000000e+00	1.000000e+00	1.000000e+00	1.000000e+00	1.000000e+00	1.000000e+00	1.000000e+00	1.000000e+00	1.000000e+00	1.000000e+00	1.000000e+00	1.000000e+00	1.000000e+00	1.000000e+00	1.000000e+00	1.000000e+00	1.000000e+00	1.000000e+00	1.000000e+00	1.000000e+00	1.000000e+00	1.000000e+00	1.000000e+00	1.000000e+00	1.000000e+00	1.000000e+00	1.000000e+00	1.000000e+00	1.000000e+00	9.685258e-01	9.686593e-01	9.701098e-01	9.718211e-01	9.740196e-01	9.764565e-01	9.791549e-01	9.821266e-01	9.855295e-01	9.894773e-01	9.939079e-01	9.985918e-01	1.003180e+00	1.007350e+00	1.011240e+00	1.014529e+00	1.015608e+00	1.015733e+00	1.015789e+00	1.016230e+00	1.016223e+00	1.015919e+00	1.015523e+00	1.014325e+00	1.010862e+00	1.004457e+00	9.981485e-01	9.947060e-01	9.933788e-01	9.927954e-01	9.923685e-01	9.919046e-01	9.913236e-01	9.905741e-01	9.896313e-01	9.884989e-01	9.872597e-01	9.860750e-01	9.851262e-01	9.845071e-01	9.841262e-01	9.838598e-01	9.838725e-01	9.842354e-01	9.851751e-01	9.865982e-01	9.883179e-01	9.903964e-01	9.931058e-01	9.966815e-01	1.001069e+00	1.005835e+00	1.010366e+00	1.014154e+00	1.017236e+00	1.020213e+00	1.021672e+00	1.021921e+00	1.021908e+00	1.022233e+00	1.022311e+00	1.022034e+00	1.021710e+00	1.020708e+00	1.017614e+00	1.011394e+00	1.004766e+00	1.001224e+00	1.000220e+00	1.000035e+00	1.000006e+00	1.000001e+00	1.000000e+00	1.000000e+00	1.000000e+00	1.000000e+00	1.000000e+00	1.000000e+00	1.000000e+00	1.000000e+00	1.000000e+00	1.000000e+00	1.000000e+00	1.000000e+00	1.000000e+00	1.000000e+00	1.000000e+00	1.000000e+00	1.000000e+00	1.000000e+00	1.000000e+00	1.000000e+00	1.000000e+00	1.000000e+00	1.000000e+00	1.000000e+00	1.000000e+00	1.000000e+00	1.000000e+00	1.000000e+00	1.000000e+00	9.688357e-01	9.690702e-01	9.704670e-01	9.723909e-01	9.749138e-01	9.780719e-01	9.816648e-01	9.855295e-01	9.895688e-01	9.937305e-01	9.979297e-01	1.001806e+00	1.004891e+00	1.007585e+00	1.009571e+00	1.009627e+00	1.008716e+00	1.008024e+00	1.008204e+00	1.010344e+00	1.013206e+00	1.014412e+00	1.014585e+00	1.014067e+00	1.011456e+00	1.005710e+00	9.989037e-01	9.944650e-01	9.925452e-01	9.916674e-01	9.910298e-01	9.903605e-01	9.895732e-01	9.886618e-01	9.876730e-01	9.867069e-01	9.858725e-01	9.852581e-01	9.848478e-01	9.845447e-01	9.843440e-01	9.844353e-01	9.848880e-01	9.859432e-01	9.876001e-01	9.897561e-01	9.923723e-01	9.954757e-01	9.990712e-01	1.003074e+00	1.007178e+00	1.010764e+00	1.013364e+00	1.015104e+00	1.016515e+00	1.016653e+00	1.015793e+00	1.014857e+00	1.014740e+00	1.016716e+00	1.019908e+00	1.021388e+00	1.021566e+00	1.021202e+00	1.018965e+00	1.013545e+00	1.006600e+00	1.002004e+00	1.000405e+00	1.000066e+00	1.000011e+00	1.000002e+00	1.000001e+00	1.000000e+00	1.000000e+00	1.000000e+00	1.000000e+00	1.000000e+00	1.000000e+00	1.000000e+00	1.000000e+00	1.000000e+00	1.000000e+00	1.000000e+00	1.000000e+00	1.000000e+00	1.000000e+00	1.000000e+00	1.000000e+00	1.000000e+00	1.000000e+00	1.000000e+00	1.000000e+00	1.000000e+00	1.000000e+00	1.000000e+00	1.000000e+00	1.000000e+00	1.000000e+00	1.000000e+00	1.000000e+00	9.705207e-01	9.707899e-01	9.719718e-01	9.742000e-01	9.771585e-01	9.808753e-01	9.850949e-01	9.894773e-01	9.937305e-01	9.977758e-01	1.001326e+00	1.003757e+00	1.005361e+00	1.006127e+00	1.005317e+00	1.002684e+00	1.000624e+00	1.000068e+00	1.001185e+00	1.005616e+00	1.010646e+00	1.012923e+00	1.013371e+00	1.013194e+00	1.011258e+00	1.006220e+00	9.992217e-01	9.938737e-01	9.912752e-01	9.900633e-01	9.892439e-01	9.884704e-01	9.876840e-01	9.869400e-01	9.863060e-01	9.858193e-01	9.854686e-01	9.851853e-01	9.849265e-01	9.848260e-01	9.850031e-01	9.855847e-01	9.867597e-01	9.885454e-01	9.909088e-01	9.938585e-01	9.974237e-01	1.001491e+00	1.005729e+00	1.009623e+00	1.012597e+00	1.014267e+00	1.014737e+00	1.014829e+00	1.014240e+00	1.011663e+00	1.008818e+00	1.007741e+00	1.008435e+00	1.012870e+00	1.018505e+00	1.021050e+00	1.021547e+00	1.021441e+00	1.019808e+00	1.015256e+00	1.008453e+00	1.002998e+00	1.000687e+00	1.000119e+00	1.000019e+00	1.000004e+00	1.000001e+00	1.000000e+00	1.000000e+00	1.000000e+00	1.000000e+00	1.000000e+00	1.000000e+00	1.000000e+00	1.000000e+00	1.000000e+00	1.000000e+00	1.000000e+00	1.000000e+00	1.000000e+00	1.000000e+00	1.000000e+00	1.000000e+00	1.000000e+00	1.000000e+00	1.000000e+00	1.000000e+00	1.000000e+00	1.000000e+00	1.000000e+00	1.000000e+00	1.000000e+00	1.000000e+00	1.000000e+00	1.000000e+00	9.739637e-01	9.744277e-01	9.755314e-01	9.779052e-01	9.811597e-01	9.851301e-01	9.895280e-01	9.939079e-01	9.979297e-01	1.001326e+00	1.003444e+00	1.004272e+00	1.004331e+00	1.002229e+00	9.981044e-01	9.943772e-01	9.927505e-01	9.927173e-01	9.954561e-01	1.001900e+00	1.008212e+00	1.011113e+00	1.011695e+00	1.011629e+00	1.010090e+00	1.005717e+00	9.989413e-01	9.929854e-01	9.897951e-01	9.883869e-01	9.876027e-01	9.870117e-01	9.865325e-01	9.861752e-01	9.859195e-01	9.857121e-01	9.854999e-01	9.853323e-01	9.853617e-01	9.856545e-01	9.864147e-01	9.877431e-01	9.896579e-01	9.921527e-01	9.952642e-01	9.990658e-01	1.003523e+00	1.008249e+00	1.012403e+00	1.015096e+00	1.016063e+00	1.015926e+00	1.015007e+00	1.013409e+00	1.009739e+00	1.004902e+00	1.002076e+00	1.001519e+00	1.003898e+00	1.010693e+00	1.017556e+00	1.020790e+00	1.021471e+00	1.021467e+00	1.020287e+00	1.016559e+00	1.010186e+00	1.004144e+00	1.001077e+00	1.000201e+00	1.000033e+00	1.000006e+00	1.000001e+00	1.000000e+00	1.000000e+00	1.000000e+00	1.000000e+00	1.000000e+00	1.000000e+00	1.000000e+00	1.000000e+00	1.000000e+00	1.000000e+00	1.000000e+00	1.000000e+00	1.000000e+00	1.000000e+00	1.000000e+00	1.000000e+00	1.000000e+00	1.000000e+00	1.000000e+00	1.000000e+00	1.000000e+00	1.000000e+00	1.000000e+00	1.000000e+00	1.000000e+00	1.000000e+00	1.000000e+00	1.000000e+00	9.791157e-01	9.798266e-01	9.810878e-01	9.834535e-01	9.867522e-01	9.906350e-01	9.947343e-01	9.985918e-01	1.001806e+00	1.003757e+00	1.004272e+00	1.003696e+00	1.000719e+00	9.952445e-01	9.898393e-01	9.868483e-01	9.861419e-01	9.870064e-01	9.914605e-01	9.989133e-01	1.005691e+00	1.009068e+00	1.009838e+00	1.009888e+00	1.008779e+00	1.005196e+00	9.989355e-01	9.926247e-01	9.889840e-01	9.875253e-01	9.869005e-01	9.865383e-01	9.862815e-01	9.860872e-01	9.859267e-01	9.858129e-01	9.858133e-01	9.859893e-01	9.864920e-01	9.874658e-01	9.889721e-01	9.910377e-01	9.936574e-01	9.968733e-01	1.000777e+00	1.005388e+00	1.010386e+00	1.014850e+00	1.017582e+00	1.018371e+00	1.017952e+00	1.016290e+00	1.013883e+00	1.009383e+00	1.003028e+00	9.981758e-01	9.965474e-01	9.969842e-01	1.001475e+00	1.009462e+00	1.016649e+00	1.020396e+00	1.021306e+00	1.021371e+00	1.020556e+00	1.017520e+00	1.011720e+00	1.005356e+00	1.001567e+00	1.000317e+00	1.000053e+00	1.000009e+00	1.000002e+00	1.000000e+00	1.000000e+00	1.000000e+00	1.000000e+00	1.000000e+00	1.000000e+00	1.000000e+00	1.000000e+00	1.000000e+00	1.000000e+00	1.000000e+00	1.000000e+00	1.000000e+00	1.000000e+00	1.000000e+00	1.000000e+00	1.000000e+00	1.000000e+00	1.000000e+00	1.000000e+00	1.000000e+00	1.000000e+00	1.000000e+00	1.000000e+00	1.000000e+00	1.000000e+00	1.000000e+00	1.000000e+00	9.863154e-01	9.871407e-01	9.883282e-01	9.906747e-01	9.936376e-01	9.969879e-01	1.000324e+00	1.003180e+00	1.004891e+00	1.005361e+00	1.004331e+00	1.000719e+00	9.943385e-01	9.873797e-01	9.829493e-01	9.814850e-01	9.814549e-01	9.835637e-01	9.890821e-01	9.966114e-01	1.003474e+00	1.007355e+00	1.008440e+00	1.008659e+00	1.008010e+00	1.005197e+00	9.995423e-01	9.931680e-01	9.891523e-01	9.875238e-01	9.868942e-01	9.865529e-01	9.863313e-01	9.862128e-01	9.862404e-01	9.864128e-01	9.868398e-01	9.876220e-01	9.888284e-01	9.905316e-01	9.927545e-01	9.955033e-01	9.988217e-01	1.002792e+00	1.007427e+00	1.012417e+00	1.016865e+00	1.019606e+00	1.020399e+00	1.020050e+00	1.018329e+00	1.015307e+00	1.009928e+00	1.002474e+00	9.960530e-01	9.931607e-01	9.926820e-01	9.946404e-01	1.000585e+00	1.008486e+00	1.015611e+00	1.019834e+00	1.021086e+00	1.021227e+00	1.020683e+00	1.018234e+00	1.013008e+00	1.006551e+00	1.002134e+00	1.000468e+00	1.000081e+00	1.000013e+00	1.000002e+00	1.000001e+00	1.000000e+00	1.000000e+00	1.000000e+00	1.000000e+00	1.000000e+00	1.000000e+00	1.000000e+00	1.000000e+00	1.000000e+00	1.000000e+00	1.000000e+00	1.000000e+00	1.000000e+00	1.000000e+00	1.000000e+00	1.000000e+00	1.000000e+00	1.000000e+00	1.000000e+00	1.000000e+00	1.000000e+00	1.000000e+00	1.000000e+00	1.000000e+00	1.000000e+00	1.000000e+00	1.000000e+00	9.958305e-01	9.966270e-01	9.972342e-01	9.991526e-01	1.001470e+00	1.003914e+00	1.006000e+00	1.007350e+00	1.007585e+00	1.006127e+00	1.002229e+00	9.952445e-01	9.873797e-01	9.814916e-01	9.789575e-01	9.785646e-01	9.792391e-01	9.822522e-01	9.878888e-01	9.950156e-01	1.001896e+00	1.006331e+00	1.007761e+00	1.008061e+00	1.007640e+00	1.005311e+00	1.000286e+00	9.939847e-01	9.895981e-01	9.877789e-01	9.871266e-01	9.868517e-01	9.867856e-01	9.869327e-01	9.873064e-01	9.880388e-01	9.891252e-01	9.905950e-01	9.925038e-01	9.948852e-01	9.977634e-01	1.001186e+00	1.005212e+00	1.009796e+00	1.014555e+00	1.018615e+00	1.020998e+00	1.021696e+00	1.021523e+00	1.020342e+00	1.017363e+00	1.011209e+00	1.002571e+00	9.950499e-01	9.912542e-01	9.902450e-01	9.907130e-01	9.940249e-01	1.000097e+00	1.007480e+00	1.014466e+00	1.019169e+00	1.020845e+00	1.021068e+00	1.020731e+00	1.018741e+00	1.014056e+00	1.007663e+00	1.002740e+00	1.000650e+00	1.000117e+00	1.000019e+00	1.000003e+00	1.000001e+00	1.000000e+00	1.000000e+00	1.000000e+00	1.000000e+00	1.000000e+00	1.000000e+00	1.000000e+00	1.000000e+00	1.000000e+00	1.000000e+00	1.000000e+00	1.000000e+00	1.000000e+00	1.000000e+00	1.000000e+00	1.000000e+00	1.000000e+00	1.000000e+00	1.000000e+00	1.000000e+00	1.000000e+00	1.000000e+00	1.000000e+00	1.000000e+00	1.000000e+00	1.000000e+00	1.000000e+00	1.007288e+00	1.007931e+00	1.007616e+00	1.008673e+00	1.009932e+00	1.011087e+00	1.011643e+00	1.011240e+00	1.009571e+00	1.005317e+00	9.981044e-01	9.898393e-01	9.829493e-01	9.789575e-01	9.776478e-01	9.775827e-01	9.785993e-01	9.818809e-01	9.873915e-01	9.941289e-01	1.000834e+00	1.005638e+00	1.007408e+00	1.007774e+00	1.007532e+00	1.005731e+00	1.001359e+00	9.951636e-01	9.904671e-01	9.885342e-01	9.879986e-01	9.879518e-01	9.881807e-01	9.887027e-01	9.897058e-01	9.911130e-01	9.928511e-01	9.949591e-01	9.974930e-01	1.000496e+00	1.004008e+00	1.008037e+00	1.012438e+00	1.016724e+00	1.020062e+00	1.021852e+00	1.022304e+00	1.022198e+00	1.021580e+00	1.019269e+00	1.013002e+00	1.003242e+00	9.946916e-01	9.903481e-01	9.890280e-01	9.889436e-01	9.902842e-01	9.939270e-01	9.996005e-01	1.006422e+00	1.013340e+00	1.018490e+00	1.020597e+00	1.020930e+00	1.020729e+00	1.019092e+00	1.014887e+00	1.008646e+00	1.003348e+00	1.000854e+00	1.000161e+00	1.000027e+00	1.000005e+00	1.000001e+00	1.000000e+00	1.000000e+00	1.000000e+00	1.000000e+00	1.000000e+00	1.000000e+00	1.000000e+00	1.000000e+00	1.000000e+00	1.000000e+00	1.000000e+00	1.000000e+00	1.000000e+00	1.000000e+00	1.000000e+00	1.000000e+00	1.000000e+00	1.000000e+00	1.000000e+00	1.000000e+00	1.000000e+00	1.000000e+00	1.000000e+00	1.000000e+00	1.000000e+00	1.000000e+00	1.000000e+00	1.019303e+00	1.019884e+00	1.018958e+00	1.019043e+00	1.018805e+00	1.018136e+00	1.016951e+00	1.014529e+00	1.009627e+00	1.002684e+00	9.943772e-01	9.868483e-01	9.814850e-01	9.785646e-01	9.775827e-01	9.775040e-01	9.786581e-01	9.821198e-01	9.874238