# vtk DataFile Version 3.0
vtk output
ASCII
DATASET STRUCTURED_GRID
DIMENSIONS 101 101 1
POINTS 10201 double
0.000000e+00	0.000000e+00	0.0	1.000000e-02	0.000000e+00	0.0	2.000000e-02	0.000000e+00	0.0	3.000000e-02	0.000000e+00	0.0	4.000000e-02	0.000000e+00	0.0	5.000000e-02	0.000000e+00	0.0	6.000000e-02	0.000000e+00	0.0	7.000000e-02	0.000000e+00	0.0	8.000000e-02	0.000000e+00	0.0	9.000000e-02	0.000000e+00	0.0	1.000000e-01	0.000000e+00	0.0	1.100000e-01	0.000000e+00	0.0	1.200000e-01	0.000000e+00	0.0	1.300000e-01	0.000000e+00	0.0	1.400000e-01	0.000000e+00	0.0	1.500000e-01	0.000000e+00	0.0	1.600000e-01	0.000000e+00	0.0	1.700000e-01	0.000000e+00	0.0	1.800000e-01	0.000000e+00	0.0	1.900000e-01	0.000000e+00	0.0	2.000000e-01	0.000000e+00	0.0	2.100000e-01	0.000000e+00	0.0	2.200000e-01	0.000000e+00	0.0	2.300000e-01	0.000000e+00	0.0	2.400000e-01	0.000000e+00	0.0	2.500000e-01	0.000000e+00	0.0	2.600000e-01	0.000000e+00	0.0	2.700000e-01	0.000000e+00	0.0	2.800000e-01	0.000000e+00	0.0	2.900000e-01	0.000000e+00	0.0	3.000000e-01	0.000000e+00	0.0	3.100000e-01	0.000000e+00	0.0	3.200000e-01	0.000000e+00	0.0	3.300000e-01	0.000000e+00	0.0	3.400000e-01	0.000000e+00	0.0	3.500000e-01	0.000000e+00	0.0	3.600000e-01	0.000000e+00	0.0	3.700000e-01	0.000000e+00	0.0	3.800000e-01	0.000000e+00	0.0	3.900000e-01	0.000000e+00	0.0	4.000000e-01	0.000000e+00	0.0	4.100000e-01	0.000000e+00	0.0	4.200000e-01	0.000000e+00	0.0	4.300000e-01	0.000000e+00	0.0	4.400000e-01	0.000000e+00	0.0	4.500000e-01	0.000000e+00	0.0	4.600000e-01	0.000000e+00	0.0	4.700000e-01	0.000000e+00	0.0	4.800000e-01	0.000000e+00	0.0	4.900000e-01	0.000000e+00	0.0	5.000000e-01	0.000000e+00	0.0	5.100000e-01	0.000000e+00	0.0	5.200000e-01	0.000000e+00	0.0	5.300000e-01	0.000000e+00	0.0	5.400000e-01	0.000000e+00	0.0	5.500000e-01	0.000000e+00	0.0	5.600000e-01	0.000000e+00	0.0	5.700000e-01	0.000000e+00	0.0	5.800000e-01	0.000000e+00	0.0	5.900000e-01	0.000000e+00	0.0	6.000000e-01	0.000000e+00	0.0	6.100000e-01	0.000000e+00	0.0	6.200000e-01	0.000000e+00	0.0	6.300000e-01	0.000000e+00	0.0	6.400000e-01	0.000000e+00	0.0	6.500000e-01	0.000000e+00	0.0	6.600000e-01	0.000000e+00	0.0	6.700000e-01	0.000000e+00	0.0	6.800000e-01	0.000000e+00	0.0	6.900000e-01	0.000000e+00	0.0	7.000000e-01	0.000000e+00	0.0	7.100000e-01	0.000000e+00	0.0	7.200000e-01	0.000000e+00	0.0	7.300000e-01	0.000000e+00	0.0	7.400000e-01	0.000000e+00	0.0	7.500000e-01	0.000000e+00	0.0	7.600000e-01	0.000000e+00	0.0	7.700000e-01	0.000000e+00	0.0	7.800000e-01	0.000000e+00	0.0	7.900000e-01	0.000000e+00	0.0	8.000000e-01	0.000000e+00	0.0	8.100000e-01	0.000000e+00	0.0	8.200000e-01	0.000000e+00	0.0	8.300000e-01	0.000000e+00	0.0	8.400000e-01	0.000000e+00	0.0	8.500000e-01	0.000000e+00	0.0	8.600000e-01	0.000000e+00	0.0	8.700000e-01	0.000000e+00	0.0	8.800000e-01	0.000000e+00	0.0	8.900000e-01	0.000000e+00	0.0	9.000000e-01	0.000000e+00	0.0	9.100000e-01	0.000000e+00	0.0	9.200000e-01	0.000000e+00	0.0	9.300000e-01	0.000000e+00	0.0	9.400000e-01	0.000000e+00	0.0	9.500000e-01	0.000000e+00	0.0	9.600000e-01	0.000000e+00	0.0	9.700000e-01	0.000000e+00	0.0	9.800000e-01	0.000000e+00	0.0	9.900000e-01	0.000000e+00	0.0	1.000000e+00	0.000000e+00	0.0	0.000000e+00	1.000000e-02	0.0	1.000000e-02	1.000000e-02	0.0	2.000000e-02	1.000000e-02	0.0	3.000000e-02	1.000000e-02	0.0	4.000000e-02	1.000000e-02	0.0	5.000000e-02	1.000000e-02	0.0	6.000000e-02	1.000000e-02	0.0	7.000000e-02	1.000000e-02	0.0	8.000000e-02	1.000000e-02	0.0	9.000000e-02	1.000000e-02	0.0	1.000000e-01	1.000000e-02	0.0	1.100000e-01	1.000000e-02	0.0	1.200000e-01	1.000000e-02	0.0	1.300000e-01	1.000000e-02	0.0	1.400000e-01	1.000000e-02	0.0	1.500000e-01	1.000000e-02	0.0	1.600000e-01	1.000000e-02	0.0	1.700000e-01	1.000000e-02	0.0	1.800000e-01	1.000000e-02	0.0	1.900000e-01	1.000000e-02	0.0	2.000000e-01	1.000000e-02	0.0	2.100000e-01	1.000000e-02	0.0	2.200000e-01	1.000000e-02	0.0	2.300000e-01	1.000000e-02	0.0	2.400000e-01	1.000000e-02	0.0	2.500000e-01	1.000000e-02	0.0	2.600000e-01	1.000000e-02	0.0	2.700000e-01	1.000000e-02	0.0	2.800000e-01	1.000000e-02	0.0	2.900000e-01	1.000000e-02	0.0	3.000000e-01	1.000000e-02	0.0	3.100000e-01	1.000000e-02	0.0	3.200000e-01	1.000000e-02	0.0	3.300000e-01	1.000000e-02	0.0	3.400000e-01	1.000000e-02	0.0	3.500000e-01	1.000000e-02	0.0	3.600000e-01	1.000000e-02	0.0	3.700000e-01	1.000000e-02	0.0	3.800000e-01	1.000000e-02	0.0	3.900000e-01	1.000000e-02	0.0	4.000000e-01	1.000000e-02	0.0	4.100000e-01	1.000000e-02	0.0	4.200000e-01	1.000000e-02	0.0	4.300000e-01	1.000000e-02	0.0	4.400000e-01	1.000000e-02	0.0	4.500000e-01	1.000000e-02	0.0	4.600000e-01	1.000000e-02	0.0	4.700000e-01	1.000000e-02	0.0	4.800000e-01	1.000000e-02	0.0	4.900000e-01	1.000000e-02	0.0	5.000000e-01	1.000000e-02	0.0	5.100000e-01	1.000000e-02	0.0	5.200000e-01	1.000000e-02	0.0	5.300000e-01	1.000000e-02	0.0	5.400000e-01	1.000000e-02	0.0	5.500000e-01	1.000000e-02	0.0	5.600000e-01	1.000000e-02	0.0	5.700000e-01	1.000000e-02	0.0	5.800000e-01	1.000000e-02	0.0	5.900000e-01	1.000000e-02	0.0	6.000000e-01	1.000000e-02	0.0	6.100000e-01	1.000000e-02	0.0	6.200000e-01	1.000000e-02	0.0	6.300000e-01	1.000000e-02	0.0	6.400000e-01	1.000000e-02	0.0	6.500000e-01	1.000000e-02	0.0	6.600000e-01	1.000000e-02	0.0	6.700000e-01	1.000000e-02	0.0	6.800000e-01	1.000000e-02	0.0	6.900000e-01	1.000000e-02	0.0	7.000000e-01	1.000000e-02	0.0	7.100000e-01	1.000000e-02	0.0	7.200000e-01	1.000000e-02	0.0	7.300000e-01	1.000000e-02	0.0	7.400000e-01	1.000000e-02	0.0	7.500000e-01	1.000000e-02	0.0	7.600000e-01	1.000000e-02	0.0	7.700000e-01	1.000000e-02	0.0	7.800000e-01	1.000000e-02	0.0	7.900000e-01	1.000000e-02	0.0	8.000000e-01	1.000000e-02	0.0	8.100000e-01	1.000000e-02	0.0	8.200000e-01	1.000000e-02	0.0	8.300000e-01	1.000000e-02	0.0	8.400000e-01	1.000000e-02	0.0	8.500000e-01	1.000000e-02	0.0	8.600000e-01	1.000000e-02	0.0	8.700000e-01	1.000000e-02	0.0	8.800000e-01	1.000000e-02	0.0	8.900000e-01	1.000000e-02	0.0	9.000000e-01	1.000000e-02	0.0	9.100000e-01	1.000000e-02	0.0	9.200000e-01	1.000000e-02	0.0	9.300000e-01	1.000000e-02	0.0	9.400000e-01	1.000000e-02	0.0	9.500000e-01	1.000000e-02	0.0	9.600000e-01	1.000000e-02	0.0	9.700000e-01	1.000000e-02	0.0	9.800000e-01	1.000000e-02	0.0	9.900000e-01	1.000000e-02	0.0	1.000000e+00	1.000000e-02	0.0	0.000000e+00	2.000000e-02	0.0	1.000000e-02	2.000000e-02	0.0	2.000000e-02	2.000000e-02	0.0	3.000000e-02	2.000000e-02	0.0	4.000000e-02	2.000000e-02	0.0	5.000000e-02	2.000000e-02	0.0	6.000000e-02	2.000000e-02	0.0	7.000000e-02	2.000000e-02	0.0	8.000000e-02	2.000000e-02	0.0	9.000000e-02	2.000000e-02	0.0	1.000000e-01	2.000000e-02	0.0	1.100000e-01	2.000000e-02	0.0	1.200000e-01	2.000000e-02	0.0	1.300000e-01	2.000000e-02	0.0	1.400000e-01	2.000000e-02	0.0	1.500000e-01	2.000000e-02	0.0	1.600000e-01	2.000000e-02	0.0	1.700000e-01	2.000000e-02	0.0	1.800000e-01	2.000000e-02	0.0	1.900000e-01	2.000000e-02	0.0	2.000000e-01	2.000000e-02	0.0	2.100000e-01	2.000000e-02	0.0	2.200000e-01	2.000000e-02	0.0	2.300000e-01	2.000000e-02	0.0	2.400000e-01	2.000000e-02	0.0	2.500000e-01	2.000000e-02	0.0	2.600000e-01	2.000000e-02	0.0	2.700000e-01	2.000000e-02	0.0	2.800000e-01	2.000000e-02	0.0	2.900000e-01	2.000000e-02	0.0	3.000000e-01	2.000000e-02	0.0	3.100000e-01	2.000000e-02	0.0	3.200000e-01	2.000000e-02	0.0	3.300000e-01	2.000000e-02	0.0	3.400000e-01	2.000000e-02	0.0	3.500000e-01	2.000000e-02	0.0	3.600000e-01	2.000000e-02	0.0	3.700000e-01	2.000000e-02	0.0	3.800000e-01	2.000000e-02	0.0	3.900000e-01	2.000000e-02	0.0	4.000000e-01	2.000000e-02	0.0	4.100000e-01	2.000000e-02	0.0	4.200000e-01	2.000000e-02	0.0	4.300000e-01	2.000000e-02	0.0	4.400000e-01	2.000000e-02	0.0	4.500000e-01	2.000000e-02	0.0	4.600000e-01	2.000000e-02	0.0	4.700000e-01	2.000000e-02	0.0	4.800000e-01	2.000000e-02	0.0	4.900000e-01	2.000000e-02	0.0	5.000000e-01	2.000000e-02	0.0	5.100000e-01	2.000000e-02	0.0	5.200000e-01	2.000000e-02	0.0	5.300000e-01	2.000000e-02	0.0	5.400000e-01	2.000000e-02	0.0	5.500000e-01	2.000000e-02	0.0	5.600000e-01	2.000000e-02	0.0	5.700000e-01	2.000000e-02	0.0	5.800000e-01	2.000000e-02	0.0	5.900000e-01	2.000000e-02	0.0	6.000000e-01	2.000000e-02	0.0	6.100000e-01	2.000000e-02	0.0	6.200000e-01	2.000000e-02	0.0	6.300000e-01	2.000000e-02	0.0	6.400000e-01	2.000000e-02	0.0	6.500000e-01	2.000000e-02	0.0	6.600000e-01	2.000000e-02	0.0	6.700000e-01	2.000000e-02	0.0	6.800000e-01	2.000000e-02	0.0	6.900000e-01	2.000000e-02	0.0	7.000000e-01	2.000000e-02	0.0	7.100000e-01	2.000000e-02	0.0	7.200000e-01	2.000000e-02	0.0	7.300000e-01	2.000000e-02	0.0	7.400000e-01	2.000000e-02	0.0	7.500000e-01	2.000000e-02	0.0	7.600000e-01	2.000000e-02	0.0	7.700000e-01	2.000000e-02	0.0	7.800000e-01	2.000000e-02	0.0	7.900000e-01	2.000000e-02	0.0	8.000000e-01	2.000000e-02	0.0	8.100000e-01	2.000000e-02	0.0	8.200000e-01	2.000000e-02	0.0	8.300000e-01	2.000000e-02	0.0	8.400000e-01	2.000000e-02	0.0	8.500000e-01	2.000000e-02	0.0	8.600000e-01	2.000000e-02	0.0	8.700000e-01	2.000000e-02	0.0	8.800000e-01	2.000000e-02	0.0	8.900000e-01	2.000000e-02	0.0	9.000000e-01	2.000000e-02	0.0	9.100000e-01	2.000000e-02	0.0	9.200000e-01	2.000000e-02	0.0	9.300000e-01	2.000000e-02	0.0	9.400000e-01	2.000000e-02	0.0	9.500000e-01	2.000000e-02	0.0	9.600000e-01	2.000000e-02	0.0	9.700000e-01	2.000000e-02	0.0	9.800000e-01	2.000000e-02	0.0	9.900000e-01	2.000000e-02	0.0	1.000000e+00	2.000000e-02	0.0	0.000000e+00	3.000000e-02	0.0	1.000000e-02	3.000000e-02	0.0	2.000000e-02	3.000000e-02	0.0	3.000000e-02	3.000000e-02	0.0	4.000000e-02	3.000000e-02	0.0	5.000000e-02	3.000000e-02	0.0	6.000000e-02	3.000000e-02	0.0	7.000000e-02	3.000000e-02	0.0	8.000000e-02	3.000000e-02	0.0	9.000000e-02	3.000000e-02	0.0	1.000000e-01	3.000000e-02	0.0	1.100000e-01	3.000000e-02	0.0	1.200000e-01	3.000000e-02	0.0	1.300000e-01	3.000000e-02	0.0	1.400000e-01	3.000000e-02	0.0	1.500000e-01	3.000000e-02	0.0	1.600000e-01	3.000000e-02	0.0	1.700000e-01	3.000000e-02	0.0	1.800000e-01	3.000000e-02	0.0	1.900000e-01	3.000000e-02	0.0	2.000000e-01	3.000000e-02	0.0	2.100000e-01	3.000000e-02	0.0	2.200000e-01	3.000000e-02	0.0	2.300000e-01	3.000000e-02	0.0	2.400000e-01	3.000000e-02	0.0	2.500000e-01	3.000000e-02	0.0	2.600000e-01	3.000000
[...]
POINT_DATA 10201

SCALARS Height double 1
LOOKUP_TABLE default
9.886386e-01	9.884778e-01	9.884339e-01	9.881568e-01	9.877293e-01	9.869234e-01	9.854668e-01	9.832170e-01	9.803516e-01	9.773581e-01	9.748369e-01	9.731968e-01	9.726062e-01	9.729875e-01	9.750032e-01	9.789664e-01	9.847783e-01	9.926519e-01	1.002533e+00	1.013557e+00	1.024177e+00	1.032958e+00	1.039125e+00	1.042273e+00	1.042546e+00	1.037991e+00	1.025802e+00	1.011288e+00	1.001705e+00	9.976331e-01	9.963096e-01	9.959325e-01	9.958216e-01	9.957679e-01	9.957000e-01	9.955869e-01	9.954214e-01	9.952104e-01	9.949654e-01	9.946860e-01	9.943666e-01	9.939966e-01	9.935685e-01	9.930754e-01	9.924616e-01	9.915831e-01	9.901653e-01	9.879317e-01	9.849005e-01	9.815812e-01	9.787049e-01	9.767701e-01	9.759464e-01	9.760967e-01	9.777705e-01	9.813928e-01	9.869031e-01	9.945772e-01	1.004486e+00	1.015821e+00	1.026906e+00	1.036091e+00	1.042553e+00	1.046008e+00	1.046518e+00	1.042502e+00	1.030658e+00	1.015685e+00	1.005655e+00	1.001577e+00	1.000379e+00	1.000086e+00	1.000020e+00	1.000005e+00	1.000001e+00	1.000000e+00	1.000000e+00	1.000000e+00	1.000000e+00	1.000000e+00	1.000000e+00	1.000000e+00	1.000000e+00	1.000000e+00	1.000000e+00	1.000000e+00	1.000000e+00	1.000000e+00	1.000000e+00	1.000000e+00	1.000000e+00	1.000000e+00	1.000000e+00	1.000000e+00	1.000000e+00	1.000000e+00	1.000000e+00	1.000000e+00	1.000000e+00	1.000000e+00	1.000000e+00	9.884778e-01	9.883017e-01	9.882712e-01	9.879705e-01	9.874732e-01	9.865650e-01	9.850339e-01	9.827402e-01	9.798791e-01	9.768943e-01	9.743969e-01	9.730124e-01	9.727685e-01	9.731925e-01	9.752257e-01	9.793383e-01	9.853229e-01	9.932514e-01	1.003058e+00	1.013988e+00	1.024652e+00	1.033734e+00	1.039950e+00	1.042198e+00	1.042075e+00	1.037715e+00	1.025928e+00	1.010861e+00	1.000975e+00	9.971909e-01	9.961312e-01	9.958588e-01	9.957752e-01	9.957252e-01	9.956551e-01	9.955390e-01	9.953694e-01	9.951513e-01	9.948974e-01	9.946091e-01	9.942806e-01	9.939046e-01	9.934678e-01	9.929474e-01	9.922762e-01	9.912989e-01	9.897739e-01	9.874717e-01	9.844266e-01	9.811047e-01	9.782842e-01	9.766272e-01	9.761344e-01	9.763439e-01	9.780300e-01	9.817815e-01	9.874775e-01	9.952315e-01	1.005079e+00	1.016312e+00	1.027423e+00	1.036906e+00	1.043493e+00	1.046059e+00	1.046094e+00	1.042224e+00	1.030854e+00	1.015411e+00	1.005007e+00	1.001157e+00	1.000226e+00	1.000044e+00	1.000010e+00	1.000003e+00	1.000001e+00	1.000000e+00	1.000000e+00	1.000000e+00	1.000000e+00	1.000000e+00	1.000000e+00	1.000000e+00	1.000000e+00	1.000000e+00	1.000000e+00	1.000000e+00	1.000000e+00	1.000000e+00	1.000000e+00	1.000000e+00	1.000000e+00	1.000000e+00	1.000000e+00	1.000000e+00	1.000000e+00	1.000000e+00	1.000000e+00	1.000000e+00	1.000000e+00	1.000000e+00	1.000000e+00	9.884339e-01	9.882712e-01	9.882073e-01	9.878212e-01	9.871743e-01	9.860937e-01	9.844716e-01	9.823100e-01	9.797780e-01	9.772200e-01	9.752253e-01	9.741511e-01	9.739046e-01	9.743064e-01	9.761581e-01	9.802502e-01	9.863476e-01	9.940140e-01	1.003166e+00	1.013427e+00	1.023936e+00	1.033033e+00	1.038490e+00	1.040188e+00	1.039850e+00	1.035845e+00	1.025461e+00	1.012353e+00	1.002642e+00	9.979696e-01	9.963478e-01	9.959040e-01	9.957706e-01	9.957022e-01	9.956259e-01	9.955119e-01	9.953479e-01	9.951377e-01	9.948838e-01	9.945934e-01	9.942647e-01	9.938879e-01	9.934404e-01	9.928576e-01	9.920508e-01	9.908653e-01	9.891626e-01	9.868837e-01	9.841747e-01	9.814223e-01	9.791974e-01	9.778127e-01	9.773186e-01	9.774915e-01	9.789588e-01	9.826842e-01	9.885472e-01	9.961044e-01	1.005308e+00	1.015781e+00	1.026641e+00	1.036207e+00	1.042134e+00	1.044037e+00	1.043848e+00	1.040256e+00	1.030247e+00	1.017024e+00	1.006751e+00	1.001856e+00	1.000375e+00	1.000065e+00	1.000012e+00	1.000003e+00	1.000001e+00	1.000000e+00	1.000000e+00	1.000000e+00	1.000000e+00	1.000000e+00	1.000000e+00	1.000000e+00	1.000000e+00	1.000000e+00	1.000000e+00	1.000000e+00	1.000000e+00	1.000000e+00	1.000000e+00	1.000000e+00	1.000000e+00	1.000000e+00	1.000000e+00	1.000000e+00	1.000000e+00	1.000000e+00	1.000000e+00	1.000000e+00	1.000000e+00	1.000000e+00	1.000000e+00	9.881568e-01	9.879705e-01	9.878212e-01	9.872773e-01	9.863923e-01	9.850732e-01	9.833128e-01	9.812611e-01	9.791534e-01	9.773145e-01	9.760012e-01	9.752627e-01	9.752725e-01	9.758663e-01	9.779977e-01	9.821742e-01	9.882156e-01	9.956937e-01	1.004269e+00	1.013889e+00	1.023986e+00	1.032413e+00	1.036929e+00	1.037810e+00	1.037061e+00	1.032643e+00	1.023579e+00	1.013133e+00	1.004506e+00	9.991281e-01	9.967478e-01	9.959627e-01	9.957261e-01	9.956198e-01	9.955260e-01	9.954040e-01	9.952372e-01	9.950251e-01	9.947657e-01	9.944642e-01	9.941227e-01	9.937191e-01	9.932098e-01	9.924969e-01	9.914414e-01	9.899421e-01	9.879660e-01	9.857031e-01	9.834807e-01	9.815732e-01	9.800028e-01	9.789784e-01	9.787660e-01	9.791058e-01	9.808053e-01	9.846252e-01	9.904966e-01	9.979710e-01	1.006607e+00	1.016356e+00	1.026753e+00	1.035709e+00	1.040615e+00	1.041736e+00	1.041146e+00	1.037052e+00	1.028255e+00	1.017774e+00	1.008818e+00	1.003137e+00	1.000753e+00	1.000132e+00	1.000021e+00	1.000004e+00	1.000001e+00	1.000000e+00	1.000000e+00	1.000000e+00	1.000000e+00	1.000000e+00	1.000000e+00	1.000000e+00	1.000000e+00	1.000000e+00	1.000000e+00	1.000000e+00	1.000000e+00	1.000000e+00	1.000000e+00	1.000000e+00	1.000000e+00	1.000000e+00	1.000000e+00	1.000000e+00	1.000000e+00	1.000000e+00	1.000000e+00	1.000000e+00	1.000000e+00	1.000000e+00	1.000000e+00	9.877293e-01	9.874732e-01	9.871743e-01	9.863923e-01	9.852186e-01	9.836989e-01	9.819359e-01	9.801898e-01	9.787445e-01	9.777705e-01	9.770215e-01	9.768075e-01	9.770267e-01	9.779347e-01	9.804400e-01	9.848256e-01	9.907392e-01	9.977974e-01	1.005750e+00	1.014566e+00	1.023669e+00	1.030935e+00	1.034332e+00	1.034677e+00	1.033503e+00	1.028809e+00	1.021375e+00	1.013753e+00	1.006679e+00	1.000860e+00	9.974344e-01	9.960966e-01	9.956743e-01	9.955061e-01	9.953874e-01	9.952549e-01	9.950846e-01	9.948662e-01	9.945997e-01	9.942844e-01	9.939081e-01	9.934386e-01	9.927810e-01	9.918283e-01	9.904279e-01	9.885565e-01	9.864831e-01	9.846106e-01	9.831802e-01	9.820557e-01	9.810482e-01	9.805730e-01	9.806031e-01	9.811727e-01	9.832575e-01	9.873863e-01	9.932445e-01	1.000328e+00	1.008321e+00	1.017218e+00	1.026567e+00	1.034233e+00	1.038153e+00	1.038688e+00	1.037691e+00	1.033260e+00	1.025919e+00	1.018302e+00	1.011167e+00	1.005065e+00	1.001490e+00	1.000289e+00	1.000045e+00	1.000007e+00	1.000001e+00	1.000000e+00	1.000000e+00	1.000000e+00	1.000000e+00	1.000000e+00	1.000000e+00	1.000000e+00	1.000000e+00	1.000000e+00	1.000000e+00	1.000000e+00	1.000000e+00	1.000000e+00	1.000000e+00	1.000000e+00	1.000000e+00	1.000000e+00	1.000000e+00	1.000000e+00	1.000000e+00	1.000000e+00	1.000000e+00	1.000000e+00	1.000000e+00	1.000000e+00	1.000000e+00	9.869234e-01	9.865650e-01	9.860937e-01	9.850732e-01	9.836989e-01	9.821121e-01	9.805441e-01	9.793507e-01	9.787485e-01	9.784033e-01	9.783721e-01	9.786272e-01	9.791794e-01	9.806432e-01	9.835956e-01	9.880770e-01	9.937465e-01	1.000285e+00	1.007562e+00	1.015314e+00	1.022812e+00	1.028680e+00	1.030838e+00	1.030841e+00	1.029196e+00	1.024733e+00	1.019245e+00	1.014170e+00	1.008772e+00	1.002911e+00	9.984282e-01	9.963310e-01	9.956266e-01	9.953682e-01	9.952139e-01	9.950639e-01	9.948823e-01	9.946498e-01	9.943589e-01	9.940038e-01	9.935480e-01	9.929244e-01	9.920201e-01	9.906802e-01	9.888839e-01	9.868855e-01	9.851523e-01	9.840185e-01	9.833121e-01	9.826662e-01	9.823897e-01	9.824777e-01	9.827738e-01	9.838376e-01	9.864380e-01	9.908080e-01	9.965401e-01	1.003149e+00	1.010441e+00	1.018211e+00	1.025855e+00	1.032113e+00	1.034798e+00	1.034940e+00	1.033518e+00	1.029180e+00	1.023647e+00	1.018662e+00	1.013380e+00	1.007374e+00	1.002626e+00	1.000583e+00	1.000094e+00	1.000014e+00	1.000003e+00	1.000001e+00	1.000000e+00	1.000000e+00	1.000000e+00	1.000000e+00	1.000000e+00	1.000000e+00	1.000000e+00	1.000000e+00	1.000000e+00	1.000000e+00	1.000000e+00	1.000000e+00	1.000000e+00	1.000000e+00	1.000000e+00	1.000000e+00	1.000000e+00	1.000000e+00	1.000000e+00	1.000000e+00	1.000000e+00	1.000000e+00	1.000000e+00	1.000000e+00	1.000000e+00	9.854668e-01	9.850339e-01	9.844716e-01	9.833128e-01	9.819359e-01	9.805441e-01	9.794750e-01	9.790941e-01	9.791517e-01	9.793789e-01	9.799293e-01	9.807085e-01	9.818998e-01	9.840062e-01	9.873463e-01	9.918183e-01	9.971258e-01	1.003049e+00	1.009389e+00	1.015727e+00	1.021418e+00	1.025285e+00	1.026477e+00	1.026236e+00	1.024448e+00	1.020921e+00	1.017499e+00	1.014502e+00	1.010579e+00	1.005006e+00	9.996528e-01	9.966757e-01	9.955864e-01	9.952010e-01	9.949961e-01	9.948163e-01	9.946055e-01	9.943402e-01	9.939947e-01	9.935387e-01	9.929199e-01	9.920233e-01	9.907241e-01	9.889983e-01	9.870930e-01	9.854869e-01	9.845023e-01	9.840041e-01	9.836679e-01	9.836854e-01	9.839946e-01	9.845492e-01	9.854353e-01	9.871916e-01	9.903235e-01	9.948202e-01	1.000271e+00	1.006299e+00	1.012641e+00	1.018924e+00	1.024598e+00	1.028924e+00	1.030566e+00	1.030449e+00	1.028879e+00	1.025359e+00	1.021872e+00	1.018978e+00	1.015275e+00	1.009737e+00	1.004102e+00	1.001057e+00	1.000186e+00	1.000028e+00	1.000005e+00	1.000001e+00	1.000000e+00	1.000000e+00	1.000000e+00	1.000000e+00	1.000000e+00	1.000000e+00	1.000000e+00	1.000000e+00	1.000000e+00	1.000000e+00	1.000000e+00	1.000000e+00	1.000000e+00	1.000000e+00	1.000000e+00	1.000000e+00	1.000000e+00	1.000000e+00	1.000000e+00	1.000000e+00	1.000000e+00	1.000000e+00	1.000000e+00	1.000000e+00	1.000000e+00	9.832170e-01	9.827402e-01	9.823100e-01	9.812611e-01	9.801898e-01	9.793507e-01	9.790941e-01	9.793432e-01	9.797758e-01	9.806695e-01	9.818532e-01	9.832723e-01	9.852072e-01	9.879509e-01	9.915739e-01	9.959004e-01	1.000701e+00	1.005780e+00	1.010882e+00	1.015424e+00	1.019109e+00	1.020847e+00	1.021275e+00	1.020969e+00	1.019789e+00	1.017830e+00	1.016276e+00	1.014752e+00	1.011980e+00	1.006902e+00	1.000985e+00	9.971219e-01	9.955513e-01	9.949899e-01	9.947113e-01	9.944789e-01	9.942116e-01	9.938653e-01	9.934053e-01	9.927644e-01	9.918453e-01	9.905567e-01	9.888993e-01	9.871262e-01	9.856882e-01	9.848467e-01	9.844644e-01	9.842760e-01	9.843913e-01	9.849520e-01	9.859021e-01	9.870769e-01	9.887128e-01	9.912260e-01	9.948194e-01	9.993101e-01	1.004316e+00	1.009486e+00	1.014473e+00	1.018882e+00	1.022645e+00	1.024742e+00	1.025473e+00	1.025266e+00	1.024238e+00	1.022286e+00	1.020721e+00	1.019273e+00	1.016778e+00	1.011898e+00	1.005777e+00	1.001730e+00	1.000341e+00	1.000053e+00	1.000008e+00	1.000002e+00	1.000000e+00	1.000000e+00	1.000000e+00	1.000000e+00	1.000000e+00	1.000000e+00	1.000000e+00	1.000000e+00	1.000000e+00	1.000000e+00	1.000000e+00	1.000000e+00	1.000000e+00	1.000000e+00	1.000000e+00	1.000000e+00	1.000000e+00	1.000000e+00	1.000000e+00	1.000000e+00	1.000000e+00	1.000000e+00	1.000000e+00	1.000000e+00	1.000000e+00	9.803516e-01	9.798791e-01	9.797780e-01	9.791534e-01	9.787445e-01	9.787485e-01	9.791517e-01	9.797758e-01	9.808676e-01	9.823920e-01	9.842098e-01	9.863900e-01	9.890800e-01	9.923364e-01	9.960745e-01	1.000094e+00	1.004203e+00	1.008127e+00	1.011520e+00	1.014384e+00	1.015517e+00	1.015550e+00	1.015364e+00	1.015473e+00	1.015859e+00	1.015717e+00	1.015516e+00	1.014956e+00	1.012992e+00	1.008447e+00	1.002275e+00	9.976301e-01	9.955046e-01	9.947016e-01	9.943055e-01	9.939796e-01	9.936031e-01	9.931047e-01	9.924173e-01	9.914663e-01	9.901853e-01	9.886223e-01	9.870460e-01	9.858408e-01	9.851590e-01	9.848505e-01	9.847188e-01	9.848662e-01	9.854859e-01	9.866786e-01	9.882586e-01	9.901917e-01	9.926748e-01	9.958853e-01	9.997816e-01	1.004076e+00	1.008388e+00	1.012272e+00	1.015457e+00	1.018073e+00	1.019502e+00	1.019734e+00	1.019625e+00	1.019742e+00	1.020254e+00	1.020204e+00	1.020053e+00	1.019584e+00	1.017900e+00	1.013710e+00	1.007489e+00	1.002591e+00	1.000577e+00	1.000097e+00	1.000015e+00	1.000003e+00	1.000001e+00	1.000000e+00	1.000000e+00	1.000000e+00	1.000000e+00	1.000000e+00	1.000000e+00	1.000000e+00	1.000000e+00	1.000000e+00	1.000000e+00	1.000000e+00	1.000000e+00	1.000000e+00	1.000000e+00	1.000000e+00	1.000000e+00	1.000000e+00	1.000000e+00	1.000000e+00	1.000000e+00	1.000000e+00	1.000000e+00	1.000000e+00	1.000000e+00	9.773581e-01	9.768943e-01	9.772200e-01	9.773145e-01	9.777705e-01	9.784033e-01	9.793789e-01	9.806695e-01	9.823920e-01	9.845298e-01	9.870885e-01	9.900624e-01	9.933970e-01	9.969823e-01	1.000671e+00	1.004213e+00	1.007222e+00	1.009540e+00	1.011239e+00	1.011556e+00	1.010722e+00	1.009673e+00	1.009307e+00	1.010283e+00	1.012811e+00	1.014573e+00	1.014936e+00	1.014856e+00	1.013478e+00	1.009495e+00	1.003361e+00	9.981164e-01	9.953921e-01	9.942667e-01	9.936852e-01	9.931999e-01	9.926272e-01	9.918704e-01	9.908715e-01	9.896183e-01	9.882077e-01	9.869069e-01	9.859651e-01	9.854537e-01	9.851953e-01	9.851021e-01	9.852732e-01	9.858922e-01	9.871548e-01	9.889768e-01	9.912621e-01	9.940451e-01	9.973526e-01	1.001106e+00	1.005088e+00	1.008879e+00	1.011959e+00	1.014111e+00	1.015413e+00	1.015864e+00	1.015133e+00	1.014082e+00	1.013646e+00	1.014473e+00	1.017179e+00	1.019378e+00	1.019794e+00	1.019767e+00	1.018664e+00	1.015109e+00	1.009104e+00	1.003595e+00	1.000909e+00	1.000165e+00	1.000026e+00	1.000004e+00	1.000001e+00	1.000000e+00	1.000000e+00	1.000000e+00	1.000000e+00	1.000000e+00	1.000000e+00	1.000000e+00	1.000000e+00	1.000000e+00	1.000000e+00	1.000000e+00	1.000000e+00	1.000000e+00	1.000000e+00	1.000000e+00	1.000000e+00	1.000000e+00	1.000000e+00	1.000000e+00	1.000000e+00	1.000000e+00	1.000000e+00	1.000000e+00	1.000000e+00	9.748369e-01	9.743969e-01	9.752253e-01	9.760012e-01	9.770215e-01	9.783721e-01	9.799293e-01	9.818532e-01	9.842098e-01	9.870885e-01	9.904509e-01	9.941241e-01	9.979432e-01	1.001743e+00	1.005138e+00	1.007628e+00	1.008980e+00	1.009527e+00	1.009443e+00	1.007476e+00	1.004795e+00	1.003544e+00	1.003546e+00	1.006103e+00	1.010754e+00	1.013693e+00	1.014428e+00	1.014476e+00	1.013438e+00	1.009976e+00	1.004119e+00	9.984450e-01	9.950885e-01	9.935536e-01	9.927009e-01	9.919649e-01	9.911172e-01	9.900858e-01	9.889111e-01	9.877331e-01	9.867656e-01	9.861029e-01	9.857410e-01	9.855122e-01	9.854590e-01	9.856649e-01	9.863077e-01	9.875918e-01	9.895021e-01	9.919812e-01	9.950532e-01	9.986951e-01	1.002725e+00	1.006789e+00	1.010376e+00	1.012972e+00	1.014224e+00	1.014382e+00	1.014253e+00	1.012429e+00	1.009625e+00	1.008118e+00	1.007945e+00	1.010334e+00	1.015395e+00	1.018889e+00	1.019808e+00	1.019900e+00	1.019109e+00	1.016131e+00	1.010544e+00	1.004679e+00	1.001334e+00	1.000264e+00	1.000043e+00	1.000007e+00	1.000001e+00	1.000000e+00	1.000000e+00	1.000000e+00	1.000000e+00	1.000000e+00	1.000000e+00	1.000000e+00	1.000000e+00	1.000000e+00	1.000000e+00	1.000000e+00	1.000000e+00	1.000000e+00	1.000000e+00	1.000000e+00	1.000000e+00	1.000000e+00	1.000000e+00	1.000000e+00	1.000000e+00	1.000000e+00	1.000000e+00	1.000000e+00	1.000000e+00	9.731968e-01	9.730124e-01	9.741511e-01	9.752627e-01	9.768075e-01	9.786272e-01	9.807085e-01	9.832723e-01	9.863900e-01	9.900624e-01	9.941241e-01	9.983482e-01	1.002549e+00	1.006228e+00	1.008505e+00	1.009245e+00	1.009235e+00	1.008562e+00	1.005647e+00	1.001423e+00	9.985810e-01	9.977906e-01	9.986484e-01	1.003129e+00	1.009268e+00	1.012813e+00	1.013741e+00	1.013843e+00	1.013041e+00	1.010047e+00	1.004469e+00	9.984094e-01	9.944129e-01	9.923971e-01	9.912189e-01	9.902212e-01	9.892006e-01	9.881872e-01	9.873146e-01	9.866746e-01	9.862735e-01	9.860169e-01	9.858234e-01	9.858234e-01	9.860747e-01	9.867826e-01	9.881158e-01	9.900802e-01	9.926398e-01	9.958440e-01	9.997452e-01	1.004185e+00	1.008654e+00	1.012364e+00	1.014626e+00	1.015313e+00	1.014994e+00	1.014004e+00	1.011430e+00	1.007153e+00	1.003708e+00	1.002598e+00	1.003232e+00	1.007721e+00	1.014494e+00	1.018641e+00	1.019799e+00	1.019937e+00	1.019363e+00	1.016864e+00	1.011778e+00	1.005777e+00	1.001839e+00	1.000396e+00	1.000067e+00	1.000011e+00	1.000002e+00	1.000000e+00	1.000000e+00	1.000000e+00	1.000000e+00	1.000000e+00	1.000000e+00	1.000000e+00	1.000000e+00	1.000000e+00	1.000000e+00	1.000000e+00	1.000000e+00	1.000000e+00	1.000000e+00	1.000000e+00	1.000000e+00	1.000000e+00	1.000000e+00	1.000000e+00	1.000000e+00	1.000000e+00	1.000000e+00	1.000000e+00	1.000000e+00	9.726062e-01	9.727685e-01	9.739046e-01	9.752725e-01	9.770267e-01	9.791794e-01	9.818998e-01	9.852072e-01	9.890800e-01	9.933970e-01	9.979432e-01	1.002549e+00	1.006670e+00	1.009110e+00	1.009749e+00	1.009679e+00	1.008575e+00	1.004926e+00	9.992765e-01	9.947253e-01	9.929115e-01	9.927371e-01	9.949954e-01	1.001048e+00	1.007862e+00	1.011690e+00	1.012704e+00	1.012819e+00	1.012161e+00	1.009502e+00	1.004134e+00	9.978143e-01	9.932496e-01	9.908132e-01	9.894376e-01	9.884370e-01	9.876423e-01	9.870556e-01	9.866865e-01	9.864561e-01	9.862689e-01	9.861383e-01	9.862095e-01	9.865432e-01	9.873598e-01	9.887771e-01	9.908113e-01	9.934337e-01	9.966929e-01	1.000693e+00	1.005394e+00	1.010303e+00	1.014347e+00	1.016577e+00	1.017058e+00	1.016451e+00	1.014825e+00	1.011720e+00	1.006406e+00	1.001026e+00	9.984525e-01	9.980047e-01	1.000175e+00	1.006619e+00	1.013933e+00	1.018388e+00	1.019714e+00	1.019882e+00	1.019465e+00	1.017396e+00	1.012804e+00	1.006829e+00	1.002394e+00	1.000560e+00	1.000099e+00	1.000016e+00	1.000003e+00	1.000001e+00	1.000000e+00	1.000000e+00	1.000000e+00	1.000000e+00	1.000000e+00	1.000000e+00	1.000000e+00	1.000000e+00	1.000000e+00	1.000000e+00	1.000000e+00	1.000000e+00	1.000000e+00	1.000000e+00	1.000000e+00	1.000000e+00	1.000000e+00	1.000000e+00	1.000000e+00	1.000000e+00	1.000000e+00	1.000000e+00	1.000000e+00	9.729875e-01	9.731925e-01	9.743064e-01	9.758663e-01	9.779347e-01	9.806432e-01	9.840062e-01	9.879509e-01	9.923364e-01	9.969823e-01	1.001743e+00	1.006228e+00	1.009110e+00	1.009955e+00	1.010100e+00	1.008970e+00	1.004820e+00	9.979232e-01	9.918052e-01	9.887692e-01	9.880405e-01	9.886607e-01	9.924741e-01	9.992810e-01	1.006129e+00	1.010115e+00	1.011177e+00	1.011252e+00	1.010631e+00	1.008181e+00	1.003129e+00	9.967968e-01	9.919377e-01	9.893828e-01	9.881453e-01	9.874586e-01	9.870420e-01	9.867917e-01	9.866265e-01	9.864962e-01	9.864796e-01	9.866421e-01	9.871267e-01	9.880909e-01	9.896229e-01	9.917483e-01	9.944447e-01	9.977546e-01	1.001793e+00	1.006578e+00	1.011700e+00	1.016045e+00	1.018431e+00	1.018925e+00	1.018340e+00	1.016418e+00	1.012869e+00	1.006782e+00	9.998980e-01	9.956617e-01	9.944309e-01	9.949308e-01	9.990071e-01	1.006160e+00	1.013361e+00	1.017982e+00	1.019561e+00	1.019770e+00	1.019490e+00	1.017768e+00	1.013645e+00	1.007788e+00	1.002969e+00	1.000749e+00	1.000139e+00	1.000022e+00	1.000004e+00	1.000001e+00	1.000000e+00	1.000000e+00	1.000000e+00	1.000000e+00	1.000000e+00	1.000000e+00	1.000000e+00	1.000000e+00	1.000000e+00	1.000000e+00	1.000000e+00	1.000000e+00	1.000000e+00	1.000000e+00	1.000000e+00	1.000000e+00	1.000000e+00	1.000000e+00	1.000000e+00	1.000000e+00	1.000000e+00	1.000000e+00	1.000000e+00	9.750032e-01	9.752257e-01	9.761581e-01	9.779977e-01	9.804400e-01	9.835956e-01	9.873463e-01	9.915739e-01	9.960745e-01	1.000671e+00	1.005138e+00	1.008505e+00	1.009749e+00	1.010100e+00	1.009186e+00	1.004880e+00	9.970128e-01	9.894831e-01	9.853612e-01	9.840646e-01	9.840305e-01	9.857942e-01	9.906053e-01	9.973642e-01	1.003921e+00	1.008112e+00	1.009362e+00	1.009438e+00	1.008908e+00	1.006814e+00	1.002320e+00	9.962666e-01	9.913859e-01	9.888931e-01	9.878330e-01	9.873117e-01	9.870006e-01	9.868103e-01	9.867517e-01	9.868536e-01	9.871809e-01	9.878821e-01	9.890310e-01	9.907097e-01	9.929440e-01	9.957264e-01	9.991031e-01	1.003184e+00	1.007986e+00	1.013106e+00	1.017467e+00	1.019904e+00	1.020485e+00	1.020083e+00	1.018369e+00	1.014626e+00	1.007833e+00	9.997529e-01	9.941421e-01	9.920814e-01	9.918439e-01	9.937133e-01	9.987735e-01	1.005800e+00	1.012684e+00	1.017474e+00	1.019362e+00	1.019653e+00	1.019472e+00	1.018036e+00	1.014316e+00	1.008627e+00	1.003528e+00	1.000952e+00	1.000185e+00	1.000030e+00	1.000005e+00	1.000001e+00	1.000000e+00	1.000000e+00	1.000000e+00	1.000000e+00	1.000000e+00	1.000000e+00	1.000000e+00	1.000000e+00	1.000000e+00	1.000000e+00	1.000000e+00	1.000000e+00	1.000000e+00	1.000000e+00	1.000000e+00	1.000000e+00	1.000000e+00	1.000000e+00	1.000000e+00	1.000000e+00	1.000000e+00	1.000000e+00	1.000000e+00	9.789664e-01	9.793383e-01	9.802502e-01	9.821742e-01	9.848256e-01	9.880770e-01	9.918183e-01	9.959004e-01	1.000094e+00	1.004213e+00	1.007628e+00	1.009245e+00	1.009679e+00	1.008970e+00	1.004880e+00	9.967039e-01	9.880436e-01	9.828330e-01	9.809305