# vtk DataFile Version 3.0
vtk output
ASCII
DATASET STRUCTURED_GRID
DIMENSIONS 101 101 1
POINTS 10201 double
0.000000e+00	0.000000e+00	0.0	1.000000e-02	0.000000e+00	0.0	2.000000e-02	0.000000e+00	0.0	3.000000e-02	0.000000e+00	0.0	4.000000e-02	0.000000e+00	0.0	5.000000e-02	0.000000e+00	0.0	6.000000e-02	0.000000e+00	0.0	7.000000e-02	0.000000e+00	0.0	8.000000e-02	0.000000e+00	0.0	9.000000e-02	0.000000e+00	0.0	1.000000e-01	0.000000e+00	0.0	1.100000e-01	0.000000e+00	0.0	1.200000e-01	0.000000e+00	0.0	1.300000e-01	0.000000e+00	0.0	1.400000e-01	0.000000e+00	0.0	1.500000e-01	0.000000e+00	0.0	1.600000e-01	0.000000e+00	0.0	1.700000e-01	0.000000e+00	0.0	1.800000e-01	0.000000e+00	0.0	1.900000e-01	0.000000e+00	0.0	2.000000e-01	0.000000e+00	0.0	2.100000e-01	0.000000e+00	0.0	2.200000e-01	0.000000e+00	0.0	2.300000e-01	0.000000e+00	0.0	2.400000e-01	0.000000e+00	0.0	2.500000e-01	0.000000e+00	0.0	2.600000e-01	0.000000e+00	0.0	2.700000e-01	0.000000e+00	0.0	2.800000e-01	0.000000e+00	0.0	2.900000e-01	0.000000e+00	0.0	3.000000e-01	0.000000e+00	0.0	3.100000e-01	0.000000e+00	0.0	3.200000e-01	0.000000e+00	0.0	3.300000e-01	0.000000e+00	0.0	3.400000e-01	0.000000e+00	0.0	3.500000e-01	0.000000e+00	0.0	3.600000e-01	0.000000e+00	0.0	3.700000e-01	0.000000e+00	0.0	3.800000e-01	0.000000e+00	0.0	3.900000e-01	0.000000e+00	0.0	4.000000e-01	0.000000e+00	0.0	4.100000e-01	0.000000e+00	0.0	4.200000e-01	0.000000e+00	0.0	4.300000e-01	0.000000e+00	0.0	4.400000e-01	0.000000e+00	0.0	4.500000e-01	0.000000e+00	0.0	4.600000e-01	0.000000e+00	0.0	4.700000e-01	0.000000e+00	0.0	4.800000e-01	0.000000e+00	0.0	4.900000e-01	0.000000e+00	0.0	5.000000e-01	0.000000e+00	0.0	5.100000e-01	0.000000e+00	0.0	5.200000e-01	0.000000e+00	0.0	5.300000e-01	0.000000e+00	0.0	5.400000e-01	0.000000e+00	0.0	5.500000e-01	0.000000e+00	0.0	5.600000e-01	0.000000e+00	0.0	5.700000e-01	0.000000e+00	0.0	5.800000e-01	0.000000e+00	0.0	5.900000e-01	0.000000e+00	0.0	6.000000e-01	0.000000e+00	0.0	6.100000e-01	0.000000e+00	0.0	6.200000e-01	0.000000e+00	0.0	6.300000e-01	0.000000e+00	0.0	6.400000e-01	0.000000e+00	0.0	6.500000e-01	0.000000e+00	0.0	6.600000e-01	0.000000e+00	0.0	6.700000e-01	0.000000e+00	0.0	6.800000e-01	0.000000e+00	0.0	6.900000e-01	0.000000e+00	0.0	7.000000e-01	0.000000e+00	0.0	7.100000e-01	0.000000e+00	0.0	7.200000e-01	0.000000e+00	0.0	7.300000e-01	0.000000e+00	0.0	7.400000e-01	0.000000e+00	0.0	7.500000e-01	0.000000e+00	0.0	7.600000e-01	0.000000e+00	0.0	7.700000e-01	0.000000e+00	0.0	7.800000e-01	0.000000e+00	0.0	7.900000e-01	0.000000e+00	0.0	8.000000e-01	0.000000e+00	0.0	8.100000e-01	0.000000e+00	0.0	8.200000e-01	0.000000e+00	0.0	8.300000e-01	0.000000e+00	0.0	8.400000e-01	0.000000e+00	0.0	8.500000e-01	0.000000e+00	0.0	8.600000e-01	0.000000e+00	0.0	8.700000e-01	0.000000e+00	0.0	8.800000e-01	0.000000e+00	0.0	8.900000e-01	0.000000e+00	0.0	9.000000e-01	0.000000e+00	0.0	9.100000e-01	0.000000e+00	0.0	9.200000e-01	0.000000e+00	0.0	9.300000e-01	0.000000e+00	0.0	9.400000e-01	0.000000e+00	0.0	9.500000e-01	0.000000e+00	0.0	9.600000e-01	0.000000e+00	0.0	9.700000e-01	0.000000e+00	0.0	9.800000e-01	0.000000e+00	0.0	9.900000e-01	0.000000e+00	0.0	1.000000e+00	0.000000e+00	0.0	0.000000e+00	1.000000e-02	0.0	1.000000e-02	1.000000e-02	0.0	2.000000e-02	1.000000e-02	0.0	3.000000e-02	1.000000e-02	0.0	4.000000e-02	1.000000e-02	0.0	5.000000e-02	1.000000e-02	0.0	6.000000e-02	1.000000e-02	0.0	7.000000e-02	1.000000e-02	0.0	8.000000e-02	1.000000e-02	0.0	9.000000e-02	1.000000e-02	0.0	1.000000e-01	1.000000e-02	0.0	1.100000e-01	1.000000e-02	0.0	1.200000e-01	1.000000e-02	0.0	1.300000e-01	1.000000e-02	0.0	1.400000e-01	1.000000e-02	0.0	1.500000e-01	1.000000e-02	0.0	1.600000e-01	1.000000e-02	0.0	1.700000e-01	1.000000e-02	0.0	1.800000e-01	1.000000e-02	0.0	1.900000e-01	1.000000e-02	0.0	2.000000e-01	1.000000e-02	0.0	2.100000e-01	1.000000e-02	0.0	2.200000e-01	1.000000e-02	0.0	2.300000e-01	1.000000e-02	0.0	2.400000e-01	1.000000e-02	0.0	2.500000e-01	1.000000e-02	0.0	2.600000e-01	1.000000e-02	0.0	2.700000e-01	1.000000e-02	0.0	2.800000e-01	1.000000e-02	0.0	2.900000e-01	1.000000e-02	0.0	3.000000e-01	1.000000e-02	0.0	3.100000e-01	1.000000e-02	0.0	3.200000e-01	1.000000e-02	0.0	3.300000e-01	1.000000e-02	0.0	3.400000e-01	1.000000e-02	0.0	3.500000e-01	1.000000e-02	0.0	3.600000e-01	1.000000e-02	0.0	3.700000e-01	1.000000e-02	0.0	3.800000e-01	1.000000e-02	0.0	3.900000e-01	1.000000e-02	0.0	4.000000e-01	1.000000e-02	0.0	4.100000e-01	1.000000e-02	0.0	4.200000e-01	1.000000e-02	0.0	4.300000e-01	1.000000e-02	0.0	4.400000e-01	1.000000e-02	0.0	4.500000e-01	1.000000e-02	0.0	4.600000e-01	1.000000e-02	0.0	4.700000e-01	1.000000e-02	0.0	4.800000e-01	1.000000e-02	0.0	4.900000e-01	1.000000e-02	0.0	5.000000e-01	1.000000e-02	0.0	5.100000e-01	1.000000e-02	0.0	5.200000e-01	1.000000e-02	0.0	5.300000e-01	1.000000e-02	0.0	5.400000e-01	1.000000e-02	0.0	5.500000e-01	1.000000e-02	0.0	5.600000e-01	1.000000e-02	0.0	5.700000e-01	1.000000e-02	0.0	5.800000e-01	1.000000e-02	0.0	5.900000e-01	1.000000e-02	0.0	6.000000e-01	1.000000e-02	0.0	6.100000e-01	1.000000e-02	0.0	6.200000e-01	1.000000e-02	0.0	6.300000e-01	1.000000e-02	0.0	6.400000e-01	1.000000e-02	0.0	6.500000e-01	1.000000e-02	0.0	6.600000e-01	1.000000e-02	0.0	6.700000e-01	1.000000e-02	0.0	6.800000e-01	1.000000e-02	0.0	6.900000e-01	1.000000e-02	0.0	7.000000e-01	1.000000e-02	0.0	7.100000e-01	1.000000e-02	0.0	7.200000e-01	1.000000e-02	0.0	7.300000e-01	1.000000e-02	0.0	7.400000e-01	1.000000e-02	0.0	7.500000e-01	1.000000e-02	0.0	7.600000e-01	1.000000e-02	0.0	7.700000e-01	1.000000e-02	0.0	7.800000e-01	1.000000e-02	0.0	7.900000e-01	1.000000e-02	0.0	8.000000e-01	1.000000e-02	0.0	8.100000e-01	1.000000e-02	0.0	8.200000e-01	1.000000e-02	0.0	8.300000e-01	1.000000e-02	0.0	8.400000e-01	1.000000e-02	0.0	8.500000e-01	1.000000e-02	0.0	8.600000e-01	1.000000e-02	0.0	8.700000e-01	1.000000e-02	0.0	8.800000e-01	1.000000e-02	0.0	8.900000e-01	1.000000e-02	0.0	9.000000e-01	1.000000e-02	0.0	9.100000e-01	1.000000e-02	0.0	9.200000e-01	1.000000e-02	0.0	9.300000e-01	1.000000e-02	0.0	9.400000e-01	1.000000e-02	0.0	9.500000e-01	1.000000e-02	0.0	9.600000e-01	1.000000e-02	0.0	9.700000e-01	1.000000e-02	0.0	9.800000e-01	1.000000e-02	0.0	9.900000e-01	1.000000e-02	0.0	1.000000e+00	1.000000e-02	0.0	0.000000e+00	2.000000e-02	0.0	1.000000e-02	2.000000e-02	0.0	2.000000e-02	2.000000e-02	0.0	3.000000e-02	2.000000e-02	0.0	4.000000e-02	2.000000e-02	0.0	5.000000e-02	2.000000e-02	0.0	6.000000e-02	2.000000e-02	0.0	7.000000e-02	2.000000e-02	0.0	8.000000e-02	2.000000e-02	0.0	9.000000e-02	2.000000e-02	0.0	1.000000e-01	2.000000e-02	0.0	1.100000e-01	2.000000e-02	0.0	1.200000e-01	2.000000e-02	0.0	1.300000e-01	2.000000e-02	0.0	1.400000e-01	2.000000e-02	0.0	1.500000e-01	2.000000e-02	0.0	1.600000e-01	2.000000e-02	0.0	1.700000e-01	2.000000e-02	0.0	1.800000e-01	2.000000e-02	0.0	1.900000e-01	2.000000e-02	0.0	2.000000e-01	2.000000e-02	0.0	2.100000e-01	2.000000e-02	0.0	2.200000e-01	2.000000e-02	0.0	2.300000e-01	2.000000e-02	0.0	2.400000e-01	2.000000e-02	0.0	2.500000e-01	2.000000e-02	0.0	2.600000e-01	2.000000e-02	0.0	2.700000e-01	2.000000e-02	0.0	2.800000e-01	2.000000e-02	0.0	2.900000e-01	2.000000e-02	0.0	3.000000e-01	2.000000e-02	0.0	3.100000e-01	2.000000e-02	0.0	3.200000e-01	2.000000e-02	0.0	3.300000e-01	2.000000e-02	0.0	3.400000e-01	2.000000e-02	0.0	3.500000e-01	2.000000e-02	0.0	3.600000e-01	2.000000e-02	0.0	3.700000e-01	2.000000e-02	0.0	3.800000e-01	2.000000e-02	0.0	3.900000e-01	2.000000e-02	0.0	4.000000e-01	2.000000e-02	0.0	4.100000e-01	2.000000e-02	0.0	4.200000e-01	2.000000e-02	0.0	4.300000e-01	2.000000e-02	0.0	4.400000e-01	2.000000e-02	0.0	4.500000e-01	2.000000e-02	0.0	4.600000e-01	2.000000e-02	0.0	4.700000e-01	2.000000e-02	0.0	4.800000e-01	2.000000e-02	0.0	4.900000e-01	2.000000e-02	0.0	5.000000e-01	2.000000e-02	0.0	5.100000e-01	2.000000e-02	0.0	5.200000e-01	2.000000e-02	0.0	5.300000e-01	2.000000e-02	0.0	5.400000e-01	2.000000e-02	0.0	5.500000e-01	2.000000e-02	0.0	5.600000e-01	2.000000e-02	0.0	5.700000e-01	2.000000e-02	0.0	5.800000e-01	2.000000e-02	0.0	5.900000e-01	2.000000e-02	0.0	6.000000e-01	2.000000e-02	0.0	6.100000e-01	2.000000e-02	0.0	6.200000e-01	2.000000e-02	0.0	6.300000e-01	2.000000e-02	0.0	6.400000e-01	2.000000e-02	0.0	6.500000e-01	2.000000e-02	0.0	6.600000e-01	2.000000e-02	0.0	6.700000e-01	2.000000e-02	0.0	6.800000e-01	2.000000e-02	0.0	6.900000e-01	2.000000e-02	0.0	7.000000e-01	2.000000e-02	0.0	7.100000e-01	2.000000e-02	0.0	7.200000e-01	2.000000e-02	0.0	7.300000e-01	2.000000e-02	0.0	7.400000e-01	2.000000e-02	0.0	7.500000e-01	2.000000e-02	0.0	7.600000e-01	2.000000e-02	0.0	7.700000e-01	2.000000e-02	0.0	7.800000e-01	2.000000e-02	0.0	7.900000e-01	2.000000e-02	0.0	8.000000e-01	2.000000e-02	0.0	8.100000e-01	2.000000e-02	0.0	8.200000e-01	2.000000e-02	0.0	8.300000e-01	2.000000e-02	0.0	8.400000e-01	2.000000e-02	0.0	8.500000e-01	2.000000e-02	0.0	8.600000e-01	2.000000e-02	0.0	8.700000e-01	2.000000e-02	0.0	8.800000e-01	2.000000e-02	0.0	8.900000e-01	2.000000e-02	0.0	9.000000e-01	2.000000e-02	0.0	9.100000e-01	2.000000e-02	0.0	9.200000e-01	2.000000e-02	0.0	9.300000e-01	2.000000e-02	0.0	9.400000e-01	2.000000e-02	0.0	9.500000e-01	2.000000e-02	0.0	9.600000e-01	2.000000e-02	0.0	9.700000e-01	2.000000e-02	0.0	9.800000e-01	2.000000e-02	0.0	9.900000e-01	2.000000e-02	0.0	1.000000e+00	2.000000e-02	0.0	0.000000e+00	3.000000e-02	0.0	1.000000e-02	3.000000e-02	0.0	2.000000e-02	3.000000e-02	0.0	3.000000e-02	3.000000e-02	0.0	4.000000e-02	3.000000e-02	0.0	5.000000e-02	3.000000e-02	0.0	6.000000e-02	3.000000e-02	0.0	7.000000e-02	3.000000e-02	0.0	8.000000e-02	3.000000e-02	0.0	9.000000e-02	3.000000e-02	0.0	1.000000e-01	3.000000e-02	0.0	1.100000e-01	3.000000e-02	0.0	1.200000e-01	3.000000e-02	0.0	1.300000e-01	3.000000e-02	0.0	1.400000e-01	3.000000e-02	0.0	1.500000e-01	3.000000e-02	0.0	1.600000e-01	3.000000e-02	0.0	1.700000e-01	3.000000e-02	0.0	1.800000e-01	3.000000e-02	0.0	1.900000e-01	3.000000e-02	0.0	2.000000e-01	3.000000e-02	0.0	2.100000e-01	3.000000e-02	0.0	2.200000e-01	3.000000e-02	0.0	2.300000e-01	3.000000e-02	0.0	2.400000e-01	3.000000e-02	0.0	2.500000e-01	3.000000e-02	0.0	2.600000e-01	3.000000
[...]
POINT_DATA 10201

SCALARS Height double 1
LOOKUP_TABLE default
9.992481e-01	9.992661e-01	9.992509e-01	9.992475e-01	9.992466e-01	9.992466e-01	9.992463e-01	9.992434e-01	9.992396e-01	9.992382e-01	9.992363e-01	9.992345e-01	9.992329e-01	9.992318e-01	9.992307e-01	9.992300e-01	9.992295e-01	9.992262e-01	9.992265e-01	9.992248e-01	9.992200e-01	9.992084e-01	9.991966e-01	9.991877e-01	9.991849e-01	9.991816e-01	9.991776e-01	9.991715e-01	9.991621e-01	9.991510e-01	9.991399e-01	9.991298e-01	9.991211e-01	9.991134e-01	9.991057e-01	9.990983e-01	9.990895e-01	9.990781e-01	9.990630e-01	9.990451e-01	9.990259e-01	9.990072e-01	9.989901e-01	9.989746e-01	9.989601e-01	9.989455e-01	9.989294e-01	9.989104e-01	9.988875e-01	9.988620e-01	9.988385e-01	9.988197e-01	9.988102e-01	9.988512e-01	9.990389e-01	9.996248e-01	1.001138e+00	1.004277e+00	1.009081e+00	1.014165e+00	1.017447e+00	1.018628e+00	1.018707e+00	1.018094e+00	1.016515e+00	1.013686e+00	1.009761e+00	1.005259e+00	1.000726e+00	9.965639e-01	9.930380e-01	9.903496e-01	9.885831e-01	9.876461e-01	9.872596e-01	9.870578e-01	9.870040e-01	9.871683e-01	9.875595e-01	9.879794e-01	9.881345e-01	9.879127e-01	9.874701e-01	9.871046e-01	9.869788e-01	9.870651e-01	9.872882e-01	9.877416e-01	9.887796e-01	9.906432e-01	9.933850e-01	9.969019e-01	1.001006e+00	1.005457e+00	1.009938e+00	1.014144e+00	1.018119e+00	1.022596e+00	1.028020e+00	1.032931e+00	1.036448e+00	9.992593e-01	9.992820e-01	9.992515e-01	9.992481e-01	9.992469e-01	9.992481e-01	9.992477e-01	9.992464e-01	9.992454e-01	9.992424e-01	9.992387e-01	9.992342e-01	9.992298e-01	9.992261e-01	9.992236e-01	9.992216e-01	9.992203e-01	9.992213e-01	9.992170e-01	9.992117e-01	9.992052e-01	9.991945e-01	9.991877e-01	9.991771e-01	9.991666e-01	9.991634e-01	9.991576e-01	9.991499e-01	9.991417e-01	9.991339e-01	9.991271e-01	9.991213e-01	9.991163e-01	9.991119e-01	9.991070e-01	9.991005e-01	9.990914e-01	9.990794e-01	9.990638e-01	9.990458e-01	9.990267e-01	9.990077e-01	9.989904e-01	9.989746e-01	9.989598e-01	9.989449e-01	9.989286e-01	9.989092e-01	9.988855e-01	9.988593e-01	9.988351e-01	9.988145e-01	9.987957e-01	9.987919e-01	9.988756e-01	9.992982e-01	1.000724e+00	1.004092e+00	1.009308e+00	1.014373e+00	1.017512e+00	1.018625e+00	1.018702e+00	1.018304e+00	1.016714e+00	1.013732e+00	1.009681e+00	1.005104e+00	1.000526e+00	9.963299e-01	9.927918e-01	9.901341e-01	9.884429e-01	9.875790e-01	9.872170e-01	9.870035e-01	9.869144e-01	9.871081e-01	9.875379e-01	9.879677e-01	9.881220e-01	9.878989e-01	9.874411e-01	9.870342e-01	9.868903e-01	9.870201e-01	9.872553e-01	9.876752e-01	9.886330e-01	9.904207e-01	9.931372e-01	9.966722e-01	1.000800e+00	1.005269e+00	1.009751e+00	1.013965e+00	1.018008e+00	1.022617e+00	1.028196e+00	1.033101e+00	1.036679e+00	9.992571e-01	9.992826e-01	9.992553e-01	9.992518e-01	9.992501e-01	9.992503e-01	9.992499e-01	9.992475e-01	9.992445e-01	9.992405e-01	9.992360e-01	9.992319e-01	9.992286e-01	9.992259e-01	9.992236e-01	9.992212e-01	9.992209e-01	9.992227e-01	9.992226e-01	9.992212e-01	9.992170e-01	9.992052e-01	9.991930e-01	9.991823e-01	9.991729e-01	9.991663e-01	9.991615e-01	9.991557e-01	9.991486e-01	9.991403e-01	9.991315e-01	9.991232e-01	9.991162e-01	9.991105e-01	9.991055e-01	9.990993e-01	9.990908e-01	9.990790e-01	9.990642e-01	9.990471e-01	9.990289e-01	9.990106e-01	9.989932e-01	9.989771e-01	9.989619e-01	9.989469e-01	9.989310e-01	9.989120e-01	9.988886e-01	9.988631e-01	9.988393e-01	9.988169e-01	9.987972e-01	9.987945e-01	9.988782e-01	9.993071e-01	1.000789e+00	1.004283e+00	1.009491e+00	1.014371e+00	1.017345e+00	1.018442e+00	1.018555e+00	1.018263e+00	1.016766e+00	1.013675e+00	1.009611e+00	1.005141e+00	1.000648e+00	9.964897e-01	9.929801e-01	9.903331e-01	9.886100e-01	9.876876e-01	9.872744e-01	9.870433e-01	9.869046e-01	9.870897e-01	9.875384e-01	9.879541e-01	9.880944e-01	9.878862e-01	9.874366e-01	9.870116e-01	9.868905e-01	9.870677e-01	9.873226e-01	9.877970e-01	9.888061e-01	9.906086e-01	9.933035e-01	9.968100e-01	1.000907e+00	1.005286e+00	1.009667e+00	1.013902e+00	1.018120e+00	1.022742e+00	1.028210e+00	1.032936e+00	1.036370e+00	9.992527e-01	9.992752e-01	9.992481e-01	9.992449e-01	9.992439e-01	9.992443e-01	9.992443e-01	9.992425e-01	9.992408e-01	9.992385e-01	9.992352e-01	9.992317e-01	9.992283e-01	9.992258e-01	9.992245e-01	9.992239e-01	9.992233e-01	9.992251e-01	9.992220e-01	9.992173e-01	9.992123e-01	9.992030e-01	9.991942e-01	9.991853e-01	9.991758e-01	9.991682e-01	9.991608e-01	9.991531e-01	9.991454e-01	9.991376e-01	9.991297e-01	9.991222e-01	9.991156e-01	9.991093e-01	9.991030e-01	9.990962e-01	9.990871e-01	9.990751e-01	9.990603e-01	9.990433e-01	9.990251e-01	9.990066e-01	9.989887e-01	9.989719e-01	9.989561e-01	9.989407e-01	9.989247e-01	9.989058e-01	9.988824e-01	9.988569e-01	9.988332e-01	9.988108e-01	9.987896e-01	9.987825e-01	9.988529e-01	9.992620e-01	1.000749e+00	1.004295e+00	1.009533e+00	1.014342e+00	1.017199e+00	1.018257e+00	1.018378e+00	1.018138e+00	1.016828e+00	1.013763e+00	1.009622e+00	1.005167e+00	1.000735e+00	9.966004e-01	9.930844e-01	9.904207e-01	9.886814e-01	9.877405e-01	9.873157e-01	9.870717e-01	9.868858e-01	9.870026e-01	9.874435e-01	9.878753e-01	9.880184e-01	9.878035e-01	9.873376e-01	9.869324e-01	9.868852e-01	9.871037e-01	9.873703e-01	9.878560e-01	9.888789e-01	9.906922e-01	9.933959e-01	9.969028e-01	1.000970e+00	1.005297e+00	1.009673e+00	1.013986e+00	1.018138e+00	1.022618e+00	1.028071e+00	1.032734e+00	1.036076e+00	9.992481e-01	9.992685e-01	9.992429e-01	9.992406e-01	9.992392e-01	9.992390e-01	9.992384e-01	9.992375e-01	9.992361e-01	9.992349e-01	9.992328e-01	9.992298e-01	9.992264e-01	9.992237e-01	9.992218e-01	9.992205e-01	9.992201e-01	9.992205e-01	9.992179e-01	9.992132e-01	9.992081e-01	9.992000e-01	9.991915e-01	9.991825e-01	9.991730e-01	9.991647e-01	9.991578e-01	9.991510e-01	9.991439e-01	9.991362e-01	9.991279e-01	9.991198e-01	9.991125e-01	9.991059e-01	9.990994e-01	9.990919e-01	9.990824e-01	9.990703e-01	9.990558e-01	9.990389e-01	9.990206e-01	9.990018e-01	9.989835e-01	9.989663e-01	9.989501e-01	9.989345e-01	9.989184e-01	9.989001e-01	9.988768e-01	9.988514e-01	9.988277e-01	9.988050e-01	9.987830e-01	9.987735e-01	9.988383e-01	9.992395e-01	1.000732e+00	1.004303e+00	1.009532e+00	1.014267e+00	1.017029e+00	1.018044e+00	1.018163e+00	1.017966e+00	1.016804e+00	1.013878e+00	1.009713e+00	1.005239e+00	1.000861e+00	9.967788e-01	9.932692e-01	9.905780e-01	9.887990e-01	9.878252e-01	9.873722e-01	9.871143e-01	9.868939e-01	9.869239e-01	9.873126e-01	9.877569e-01	9.879103e-01	9.876816e-01	9.872101e-01	9.868701e-01	9.869061e-01	9.871526e-01	9.874326e-01	9.879455e-01	9.889986e-01	9.908452e-01	9.935669e-01	9.970585e-01	1.001075e+00	1.005357e+00	1.009772e+00	1.014100e+00	1.018100e+00	1.022452e+00	1.027863e+00	1.032449e+00	1.035702e+00	9.992426e-01	9.992611e-01	9.992377e-01	9.992359e-01	9.992346e-01	9.992344e-01	9.992341e-01	9.992332e-01	9.992325e-01	9.992319e-01	9.992306e-01	9.992286e-01	9.992259e-01	9.992230e-01	9.992201e-01	9.992176e-01	9.992154e-01	9.992146e-01	9.992120e-01	9.992080e-01	9.992032e-01	9.991954e-01	9.991873e-01	9.991779e-01	9.991690e-01	9.991627e-01	9.991568e-01	9.991508e-01	9.991440e-01	9.991358e-01	9.991268e-01	9.991180e-01	9.991103e-01	9.991035e-01	9.990967e-01	9.990888e-01	9.990792e-01	9.990670e-01	9.990521e-01	9.990347e-01	9.990156e-01	9.989962e-01	9.989773e-01	9.989598e-01	9.989434e-01	9.989277e-01	9.989115e-01	9.988934e-01	9.988702e-01	9.988446e-01	9.988207e-01	9.987978e-01	9.987752e-01	9.987649e-01	9.988290e-01	9.992301e-01	1.000724e+00	1.004290e+00	1.009479e+00	1.014136e+00	1.016837e+00	1.017822e+00	1.017938e+00	1.017762e+00	1.016719e+00	1.013967e+00	1.009858e+00	1.005357e+00	1.000991e+00	9.969653e-01	9.934824e-01	9.907750e-01	9.889539e-01	9.879287e-01	9.874382e-01	9.871625e-01	9.869069e-01	9.868466e-01	9.871476e-01	9.875760e-01	9.877397e-01	9.875007e-01	9.870573e-01	9.868139e-01	9.869317e-01	9.872044e-01	9.875034e-01	9.880525e-01	9.891534e-01	9.910353e-01	9.937659e-01	9.972250e-01	1.001188e+00	1.005473e+00	1.009926e+00	1.014186e+00	1.018016e+00	1.022253e+00	1.027589e+00	1.032098e+00	1.035279e+00	9.992368e-01	9.992531e-01	9.992332e-01	9.992319e-01	9.992307e-01	9.992313e-01	9.992319e-01	9.992314e-01	9.992309e-01	9.992303e-01	9.992293e-01	9.992278e-01	9.992256e-01	9.992226e-01	9.992188e-01	9.992148e-01	9.992102e-01	9.992080e-01	9.992053e-01	9.992021e-01	9.991974e-01	9.991893e-01	9.991816e-01	9.991721e-01	9.991637e-01	9.991596e-01	9.991548e-01	9.991490e-01	9.991418e-01	9.991331e-01	9.991238e-01	9.991151e-01	9.991078e-01	9.991013e-01	9.990945e-01	9.990866e-01	9.990766e-01	9.990642e-01	9.990488e-01	9.990309e-01	9.990113e-01	9.989914e-01	9.989724e-01	9.989548e-01	9.989385e-01	9.989228e-01	9.989064e-01	9.988884e-01	9.988652e-01	9.988392e-01	9.988149e-01	9.987910e-01	9.987684e-01	9.987593e-01	9.988275e-01	9.992366e-01	1.000730e+00	1.004256e+00	1.009364e+00	1.013949e+00	1.016612e+00	1.017586e+00	1.017700e+00	1.017538e+00	1.016598e+00	1.014030e+00	1.010029e+00	1.005518e+00	1.001150e+00	9.971614e-01	9.937124e-01	9.910036e-01	9.891463e-01	9.880658e-01	9.875275e-01	9.872178e-01	9.869250e-01	9.867693e-01	9.869573e-01	9.873389e-01	9.875007e-01	9.872677e-01	9.868855e-01	9.867586e-01	9.869605e-01	9.872624e-01	9.875969e-01	9.881929e-01	9.893426e-01	9.912547e-01	9.939822e-01	9.974047e-01	1.001334e+00	1.005636e+00	1.010100e+00	1.014254e+00	1.017914e+00	1.022029e+00	1.027257e+00	1.031672e+00	1.034795e+00	9.992312e-01	9.992453e-01	9.992295e-01	9.992289e-01	9.992283e-01	9.992293e-01	9.992312e-01	9.992315e-01	9.992312e-01	9.992308e-01	9.992293e-01	9.992277e-01	9.992253e-01	9.992221e-01	9.992182e-01	9.992136e-01	9.992097e-01	9.992048e-01	9.992035e-01	9.991990e-01	9.991944e-01	9.991860e-01	9.991785e-01	9.991697e-01	9.991637e-01	9.991584e-01	9.991532e-01	9.991465e-01	9.991385e-01	9.991296e-01	9.991207e-01	9.991128e-01	9.991056e-01	9.990991e-01	9.990922e-01	9.990842e-01	9.990742e-01	9.990614e-01	9.990458e-01	9.990276e-01	9.990079e-01	9.989880e-01	9.989692e-01	9.989519e-01	9.989358e-01	9.989203e-01	9.989042e-01	9.988860e-01	9.988630e-01	9.988371e-01	9.988123e-01	9.987874e-01	9.987653e-01	9.987592e-01	9.988362e-01	9.992649e-01	1.000763e+00	1.004217e+00	1.009199e+00	1.013701e+00	1.016348e+00	1.017331e+00	1.017453e+00	1.017303e+00	1.016461e+00	1.014089e+00	1.010234e+00	1.005753e+00	1.001371e+00	9.973960e-01	9.939774e-01	9.912707e-01	9.893770e-01	9.882378e-01	9.876384e-01	9.872928e-01	9.869639e-01	9.867077e-01	9.867614e-01	9.870580e-01	9.871993e-01	9.869984e-01	9.867133e-01	9.867182e-01	9.870081e-01	9.873406e-01	9.877127e-01	9.883666e-01	9.895699e-01	9.915127e-01	9.942336e-01	9.976265e-01	1.001549e+00	1.005869e+00	1.010303e+00	1.014326e+00	1.017818e+00	1.021789e+00	1.026869e+00	1.031163e+00	1.034229e+00	9.992275e-01	9.992420e-01	9.992282e-01	9.992283e-01	9.992280e-01	9.992292e-01	9.992318e-01	9.992326e-01	9.992324e-01	9.992320e-01	9.992304e-01	9.992274e-01	9.992241e-01	9.992206e-01	9.992169e-01	9.992132e-01	9.992094e-01	9.992069e-01	9.992029e-01	9.991996e-01	9.991943e-01	9.991865e-01	9.991794e-01	9.991714e-01	9.991657e-01	9.991593e-01	9.991531e-01	9.991454e-01	9.991369e-01	9.991280e-01	9.991198e-01	9.991120e-01	9.991050e-01	9.990984e-01	9.990911e-01	9.990827e-01	9.990722e-01	9.990592e-01	9.990435e-01	9.990255e-01	9.990061e-01	9.989866e-01	9.989681e-01	9.989509e-01	9.989349e-01	9.989195e-01	9.989034e-01	9.988846e-01	9.988615e-01	9.988360e-01	9.988110e-01	9.987860e-01	9.987638e-01	9.987613e-01	9.988513e-01	9.993030e-01	1.000808e+00	1.004177e+00	1.008993e+00	1.013391e+00	1.016034e+00	1.017048e+00	1.017191e+00	1.017055e+00	1.016318e+00	1.014152e+00	1.010472e+00	1.006058e+00	1.001674e+00	9.977010e-01	9.942976e-01	9.915852e-01	9.896483e-01	9.884418e-01	9.877745e-01	9.873854e-01	9.870238e-01	9.866737e-01	9.865754e-01	9.867584e-01	9.868700e-01	9.867125e-01	9.865546e-01	9.867057e-01	9.870743e-01	9.874383e-01	9.878541e-01	9.885731e-01	9.898389e-01	9.918193e-01	9.945419e-01	9.979204e-01	1.001846e+00	1.006169e+00	1.010542e+00	1.014413e+00	1.017732e+00	1.021534e+00	1.026424e+00	1.030558e+00	1.033556e+00	9.992265e-01	9.992404e-01	9.992295e-01	9.992302e-01	9.992297e-01	9.992305e-01	9.992322e-01	9.992340e-01	9.992335e-01	9.992323e-01	9.992302e-01	9.992274e-01	9.992232e-01	9.992187e-01	9.992151e-01	9.992120e-01	9.992091e-01	9.992072e-01	9.992039e-01	9.991992e-01	9.991942e-01	9.991867e-01	9.991801e-01	9.991741e-01	9.991670e-01	9.991612e-01	9.991545e-01	9.991464e-01	9.991377e-01	9.991290e-01	9.991208e-01	9.991127e-01	9.991051e-01	9.990979e-01	9.990899e-01	9.990809e-01	9.990701e-01	9.990569e-01	9.990412e-01	9.990235e-01	9.990048e-01	9.989859e-01	9.989678e-01	9.989509e-01	9.989350e-01	9.989194e-01	9.989028e-01	9.988833e-01	9.988601e-01	9.988346e-01	9.988098e-01	9.987853e-01	9.987626e-01	9.987639e-01	9.988699e-01	9.993524e-01	1.000866e+00	1.004136e+00	1.008758e+00	1.013027e+00	1.015666e+00	1.016723e+00	1.016899e+00	1.016783e+00	1.016159e+00	1.014210e+00	1.010734e+00	1.006420e+00	1.002058e+00	9.980826e-01	9.946779e-01	9.919472e-01	9.899574e-01	9.886734e-01	9.879286e-01	9.874827e-01	9.870899e-01	9.866597e-01	9.863974e-01	9.864351e-01	9.865043e-01	9.864069e-01	9.864073e-01	9.867125e-01	9.871474e-01	9.875407e-01	9.880142e-01	9.888080e-01	9.901456e-01	9.921733e-01	9.949106e-01	9.982908e-01	1.002220e+00	1.006525e+00	1.010807e+00	1.014505e+00	1.017636e+00	1.021254e+00	1.025924e+00	1.029860e+00	1.032766e+00	9.992258e-01	9.992390e-01	9.992303e-01	9.992317e-01	9.992307e-01	9.992309e-01	9.992318e-01	9.992333e-01	9.992336e-01	9.992318e-01	9.992288e-01	9.992255e-01	9.992213e-01	9.992169e-01	9.992130e-01	9.992103e-01	9.992079e-01	9.992061e-01	9.992036e-01	9.991983e-01	9.991923e-01	9.991859e-01	9.991805e-01	9.991729e-01	9.991676e-01	9.991621e-01	9.991554e-01	9.991477e-01	9.991391e-01	9.991304e-01	9.991215e-01	9.991129e-01	9.991047e-01	9.990968e-01	9.990881e-01	9.990785e-01	9.990672e-01	9.990537e-01	9.990380e-01	9.990205e-01	9.990023e-01	9.989840e-01	9.989664e-01	9.989498e-01	9.989339e-01	9.989180e-01	9.989009e-01	9.988808e-01	9.988572e-01	9.988321e-01	9.988077e-01	9.987837e-01	9.987614e-01	9.987673e-01	9.988918e-01	9.994097e-01	1.000933e+00	1.004092e+00	1.008502e+00	1.012621e+00	1.015246e+00	1.016351e+00	1.016567e+00	1.016473e+00	1.015964e+00	1.014243e+00	1.010997e+00	1.006815e+00	1.002493e+00	9.985203e-01	9.951075e-01	9.923504e-01	9.902998e-01	9.889278e-01	9.880918e-01	9.875762e-01	9.871463e-01	9.866481e-01	9.862175e-01	9.860717e-01	9.860801e-01	9.860684e-01	9.862611e-01	9.867199e-01	9.872127e-01	9.876440e-01	9.881867e-01	9.890661e-01	9.904841e-01	9.925653e-01	9.953261e-01	9.987158e-01	1.002646e+00	1.006913e+00	1.011075e+00	1.014578e+00	1.017515e+00	1.020940e+00	1.025368e+00	1.029078e+00	1.031870e+00	9.992247e-01	9.992364e-01	9.992290e-01	9.992312e-01	9.992302e-01	9.992298e-01	9.992301e-01	9.992309e-01	9.992313e-01	9.992300e-01	9.992269e-01	9.992229e-01	9.992187e-01	9.992146e-01	9.992113e-01	9.992086e-01	9.992063e-01	9.992039e-01	9.991998e-01	9.991943e-01	9.991879e-01	9.991816e-01	9.991763e-01	9.991709e-01	9.991660e-01	9.991610e-01	9.991546e-01	9.991472e-01	9.991390e-01	9.991296e-01	9.991203e-01	9.991118e-01	9.991033e-01	9.990950e-01	9.990856e-01	9.990753e-01	9.990634e-01	9.990494e-01	9.990335e-01	9.990161e-01	9.989981e-01	9.989803e-01	9.989630e-01	9.989466e-01	9.989306e-01	9.989144e-01	9.988967e-01	9.988761e-01	9.988521e-01	9.988273e-01	9.988036e-01	9.987802e-01	9.987595e-01	9.987713e-01	9.989163e-01	9.994736e-01	1.001007e+00	1.004049e+00	1.008231e+00	1.012185e+00	1.014784e+00	1.015935e+00	1.016193e+00	1.016122e+00	1.015717e+00	1.014230e+00	1.011240e+00	1.007217e+00	1.002956e+00	9.989962e-01	9.955780e-01	9.927922e-01	9.906760e-01	9.892067e-01	9.882665e-01	9.876631e-01	9.871801e-01	9.866220e-01	9.860295e-01	9.856647e-01	9.855880e-01	9.856935e-01	9.861098e-01	9.867132e-01	9.872572e-01	9.877457e-01	9.883733e-01	9.893499e-01	9.908540e-01	9.929912e-01	9.957772e-01	9.991764e-01	1.003099e+00	1.007309e+00	1.011322e+00	1.014610e+00	1.017355e+00	1.020587e+00	1.024761e+00	1.028226e+00	1.030889e+00	9.992222e-01	9.992331e-01	9.992257e-01	9.992287e-01	9.992277e-01	9.992271e-01	9.992268e-01	9.992273e-01	9.992271e-01	9.992264e-01	9.992232e-01	9.992198e-01	9.992149e-01	9.992119e-01	9.992092e-01	9.992067e-01	9.992042e-01	9.992013e-01	9.991966e-01	9.991907e-01	9.991839e-01	9.991778e-01	9.991727e-01	9.991678e-01	9.991632e-01	9.991581e-01	9.991517e-01	9.991438e-01	9.991348e-01	9.991263e-01	9.991175e-01	9.991092e-01	9.991009e-01	9.990921e-01	9.990823e-01	9.990714e-01	9.990587e-01	9.990443e-01	9.990281e-01	9.990109e-01	9.989932e-01	9.989756e-01	9.989586e-01	9.989421e-01	9.989260e-01	9.989094e-01	9.988911e-01	9.988697e-01	9.988452e-01	9.988205e-01	9.987977e-01	9.987751e-01	9.987558e-01	9.987750e-01	9.989437e-01	9.995437e-01	1.001087e+00	1.004006e+00	1.007951e+00	1.011725e+00	1.014287e+00	1.015482e+00	1.015783e+00	1.015735e+00	1.015420e+00	1.014162e+00	1.011449e+00	1.007610e+00	1.003436e+00	9.995074e-01	9.960921e-01	9.932781e-01	9.910919e-01	9.895173e-01	9.884615e-01	9.877546e-01	9.871911e-01	9.865724e-01	9.858358e-01	9.852328e-01	9.850477e-01	9.853019e-01	9.859530e-01	9.866832e-01	9.872858e-01	9.878549e-01	9.885845e-01	9.896668e-01	9.912622e-01	9.934573e-01	9.962672e-01	9.996682e-01	1.003568e+00	1.007697e+00	1.011535e+00	1.014595e+00	1.017149e+00	1.020200e+00	1.024113e+00	1.027319e+00	1.029836e+00	9.992199e-01	9.992304e-01	9.992217e-01	9.992252e-01	9.992241e-01	9.992235e-01	9.992229e-01	9.992230e-01	9.992226e-01	9.992212e-01	9.992193e-01	9.992160e-01	9.992127e-01	9.992088e-01	9.992072e-01	9.992050e-01	9.992017e-01	9.991980e-01	9.991925e-01	9.991858e-01	9.991785e-01	9.991730e-01	9.991686e-01	9.991644e-01	9.991597e-01	9.991548e-01	9.991472e-01	9.991393e-01	9.991306e-01	9.991220e-01	9.991140e-01	9.991058e-01	9.990972e-01	9.990885e-01	9.990783e-01	9.990666e-01	9.990533e-01	9.990383e-01	9.990222e-01	9.990053e-01	9.989882e-01	9.989710e-01	9.989542e-01	9.989377e-01	9.989213e-01	9.989043e-01	9.988854e-01	9.988630e-01	9.988378e-01	9.988132e-01	9.987909e-01	9.987687e-01	9.987505e-01	9.987787e-01	9.989747e-01	9.996194e-01	1.001171e+00	1.003965e+00	1.007668e+00	1.011248e+00	1.013760e+00	1.014998e+00	1.015348e+00	1.015321e+00	1.015080e+00	1.014046e+00	1.011612e+00	1.007987e+00	1.003929e+00	1.000056e+00	9.966560e-01	9.938148e-01	9.915544e-01	9.898674e-01	9.886868e-01	9.878596e-01	9.871938e-01	9.864980e-01	9.856406e-01	9.848106e-01	9.845030e-01	9.849253e-01	9.857923e-01	9.866302e-01	9.873126e-01	9.879863e-01	9.888292e-01	9.900253e-01	9.917179e-01	9.939734e-01	9.968038e-01	1.000193e+00	1.004046e+00	1.008066e+00	1.011705e+00	1.014534e+00	1.016909e+00	1.019789e+00	1.023435e+00	1.026369e+00	1.028723e+00	9.992182e-01	9.992291e-01	9.992183e-01	9.992218e-01	9.992201e-01	9.992194e-01	9.992185e-01	9.992185e-01	9.992179e-01	9.992165e-01	9.992144e-01	9.992124e-01	9.992099e-01	9.992075e-01	9.992041e-01	9.992023e-01	9.991993e-01	9.991940e-01	9.991878e-01	9.991802e-01	9.991726e-01	9.991677e-01	9.991643e-01	9.991606e-01	9.991565e-01	9.991501e-01	9.991429e-01	9.991345e-01	9.991265e-01	9.991188e-01	9.991101e-01	9.991022e-01	9.990937e-01	9.990845e-01	9.990737e-01	9.990613e-01	9.990472e-01	9.990319e-01	9.990158e-01	9.989995e-01	9.989831e-01	9.989665e-01	9.989499e-01	9.989334e-01	9.989168e-01	9.988994e-01	9.988800e-01	9.988567e-01	9.988309e-01	9.988062e-01	9.987835e-01	9.987606e-01	9.987451e-01	9.987840e-01	9.990088e-01	9.996992e-01	1.001259e+00	1.003929e+00	1.007387e+00	1.010758e+00	1.013207e+00	1.014484e+00	1.014887e+00	1.014884e+00	1.014704e+00	1.013867e+00	1.011726e+00	1.008345e+00	1.004434e+00	1.000640e+00	9.972680e-01	9.944041e-01	9.920684e-01	9.902633e-01	9.889476e-01	9.879898e-01	9.872011e-01	9.863970e-01	9.854396e-01	9.844329e-01	9.840125e-01	9.845865e-01	9.856190e-01	9.865534e-01	9.873492e-01	9.881436e-01	9.891112e-01	9.904313e-01	9.922267e-01	9.945429e-01	9.973881e-01	1.000749e+00	1.004528e+00	1.008407e+00	1.011826e+00	1.014422e+00	1.016639e+00	1.019360e+00	1.022735e+00	1.025384e+00	1.027557e+00	9.992179e-01	9.992292e-01	9.992155e-01	9.992191e-01	9.992167e-01	9.992155e-01	9.992144e-01	9.992140e-01	9.992135e-01	9.992120e-01	9.992100e-01	9.992085e-01	9.992071e-01	9.992056e-01	9.992028e-01	9.991983e-01	9.991950e-01	9.991898e-01	9.991820