# vtk DataFile Version 3.0
vtk output
ASCII
DATASET STRUCTURED_GRID
DIMENSIONS 101 101 1
POINTS 10201 double
0.000000e+00	0.000000e+00	0.0	1.000000e-02	0.000000e+00	0.0	2.000000e-02	0.000000e+00	0.0	3.000000e-02	0.000000e+00	0.0	4.000000e-02	0.000000e+00	0.0	5.000000e-02	0.000000e+00	0.0	6.000000e-02	0.000000e+00	0.0	7.000000e-02	0.000000e+00	0.0	8.000000e-02	0.000000e+00	0.0	9.000000e-02	0.000000e+00	0.0	1.000000e-01	0.000000e+00	0.0	1.100000e-01	0.000000e+00	0.0	1.200000e-01	0.000000e+00	0.0	1.300000e-01	0.000000e+00	0.0	1.400000e-01	0.000000e+00	0.0	1.500000e-01	0.000000e+00	0.0	1.600000e-01	0.000000e+00	0.0	1.700000e-01	0.000000e+00	0.0	1.800000e-01	0.000000e+00	0.0	1.900000e-01	0.000000e+00	0.0	2.000000e-01	0.000000e+00	0.0	2.100000e-01	0.000000e+00	0.0	2.200000e-01	0.000000e+00	0.0	2.300000e-01	0.000000e+00	0.0	2.400000e-01	0.000000e+00	0.0	2.500000e-01	0.000000e+00	0.0	2.600000e-01	0.000000e+00	0.0	2.700000e-01	0.000000e+00	0.0	2.800000e-01	0.000000e+00	0.0	2.900000e-01	0.000000e+00	0.0	3.000000e-01	0.000000e+00	0.0	3.100000e-01	0.000000e+00	0.0	3.200000e-01	0.000000e+00	0.0	3.300000e-01	0.000000e+00	0.0	3.400000e-01	0.000000e+00	0.0	3.500000e-01	0.000000e+00	0.0	3.600000e-01	0.000000e+00	0.0	3.700000e-01	0.000000e+00	0.0	3.800000e-01	0.000000e+00	0.0	3.900000e-01	0.000000e+00	0.0	4.000000e-01	0.000000e+00	0.0	4.100000e-01	0.000000e+00	0.0	4.200000e-01	0.000000e+00	0.0	4.300000e-01	0.000000e+00	0.0	4.400000e-01	0.000000e+00	0.0	4.500000e-01	0.000000e+00	0.0	4.600000e-01	0.000000e+00	0.0	4.700000e-01	0.000000e+00	0.0	4.800000e-01	0.000000e+00	0.0	4.900000e-01	0.000000e+00	0.0	5.000000e-01	0.000000e+00	0.0	5.100000e-01	0.000000e+00	0.0	5.200000e-01	0.000000e+00	0.0	5.300000e-01	0.000000e+00	0.0	5.400000e-01	0.000000e+00	0.0	5.500000e-01	0.000000e+00	0.0	5.600000e-01	0.000000e+00	0.0	5.700000e-01	0.000000e+00	0.0	5.800000e-01	0.000000e+00	0.0	5.900000e-01	0.000000e+00	0.0	6.000000e-01	0.000000e+00	0.0	6.100000e-01	0.000000e+00	0.0	6.200000e-01	0.000000e+00	0.0	6.300000e-01	0.000000e+00	0.0	6.400000e-01	0.000000e+00	0.0	6.500000e-01	0.000000e+00	0.0	6.600000e-01	0.000000e+00	0.0	6.700000e-01	0.000000e+00	0.0	6.800000e-01	0.000000e+00	0.0	6.900000e-01	0.000000e+00	0.0	7.000000e-01	0.000000e+00	0.0	7.100000e-01	0.000000e+00	0.0	7.200000e-01	0.000000e+00	0.0	7.300000e-01	0.000000e+00	0.0	7.400000e-01	0.000000e+00	0.0	7.500000e-01	0.000000e+00	0.0	7.600000e-01	0.000000e+00	0.0	7.700000e-01	0.000000e+00	0.0	7.800000e-01	0.000000e+00	0.0	7.900000e-01	0.000000e+00	0.0	8.000000e-01	0.000000e+00	0.0	8.100000e-01	0.000000e+00	0.0	8.200000e-01	0.000000e+00	0.0	8.300000e-01	0.000000e+00	0.0	8.400000e-01	0.000000e+00	0.0	8.500000e-01	0.000000e+00	0.0	8.600000e-01	0.000000e+00	0.0	8.700000e-01	0.000000e+00	0.0	8.800000e-01	0.000000e+00	0.0	8.900000e-01	0.000000e+00	0.0	9.000000e-01	0.000000e+00	0.0	9.100000e-01	0.000000e+00	0.0	9.200000e-01	0.000000e+00	0.0	9.300000e-01	0.000000e+00	0.0	9.400000e-01	0.000000e+00	0.0	9.500000e-01	0.000000e+00	0.0	9.600000e-01	0.000000e+00	0.0	9.700000e-01	0.000000e+00	0.0	9.800000e-01	0.000000e+00	0.0	9.900000e-01	0.000000e+00	0.0	1.000000e+00	0.000000e+00	0.0	0.000000e+00	1.000000e-02	0.0	1.000000e-02	1.000000e-02	0.0	2.000000e-02	1.000000e-02	0.0	3.000000e-02	1.000000e-02	0.0	4.000000e-02	1.000000e-02	0.0	5.000000e-02	1.000000e-02	0.0	6.000000e-02	1.000000e-02	0.0	7.000000e-02	1.000000e-02	0.0	8.000000e-02	1.000000e-02	0.0	9.000000e-02	1.000000e-02	0.0	1.000000e-01	1.000000e-02	0.0	1.100000e-01	1.000000e-02	0.0	1.200000e-01	1.000000e-02	0.0	1.300000e-01	1.000000e-02	0.0	1.400000e-01	1.000000e-02	0.0	1.500000e-01	1.000000e-02	0.0	1.600000e-01	1.000000e-02	0.0	1.700000e-01	1.000000e-02	0.0	1.800000e-01	1.000000e-02	0.0	1.900000e-01	1.000000e-02	0.0	2.000000e-01	1.000000e-02	0.0	2.100000e-01	1.000000e-02	0.0	2.200000e-01	1.000000e-02	0.0	2.300000e-01	1.000000e-02	0.0	2.400000e-01	1.000000e-02	0.0	2.500000e-01	1.000000e-02	0.0	2.600000e-01	1.000000e-02	0.0	2.700000e-01	1.000000e-02	0.0	2.800000e-01	1.000000e-02	0.0	2.900000e-01	1.000000e-02	0.0	3.000000e-01	1.000000e-02	0.0	3.100000e-01	1.000000e-02	0.0	3.200000e-01	1.000000e-02	0.0	3.300000e-01	1.000000e-02	0.0	3.400000e-01	1.000000e-02	0.0	3.500000e-01	1.000000e-02	0.0	3.600000e-01	1.000000e-02	0.0	3.700000e-01	1.000000e-02	0.0	3.800000e-01	1.000000e-02	0.0	3.900000e-01	1.000000e-02	0.0	4.000000e-01	1.000000e-02	0.0	4.100000e-01	1.000000e-02	0.0	4.200000e-01	1.000000e-02	0.0	4.300000e-01	1.000000e-02	0.0	4.400000e-01	1.000000e-02	0.0	4.500000e-01	1.000000e-02	0.0	4.600000e-01	1.000000e-02	0.0	4.700000e-01	1.000000e-02	0.0	4.800000e-01	1.000000e-02	0.0	4.900000e-01	1.000000e-02	0.0	5.000000e-01	1.000000e-02	0.0	5.100000e-01	1.000000e-02	0.0	5.200000e-01	1.000000e-02	0.0	5.300000e-01	1.000000e-02	0.0	5.400000e-01	1.000000e-02	0.0	5.500000e-01	1.000000e-02	0.0	5.600000e-01	1.000000e-02	0.0	5.700000e-01	1.000000e-02	0.0	5.800000e-01	1.000000e-02	0.0	5.900000e-01	1.000000e-02	0.0	6.000000e-01	1.000000e-02	0.0	6.100000e-01	1.000000e-02	0.0	6.200000e-01	1.000000e-02	0.0	6.300000e-01	1.000000e-02	0.0	6.400000e-01	1.000000e-02	0.0	6.500000e-01	1.000000e-02	0.0	6.600000e-01	1.000000e-02	0.0	6.700000e-01	1.000000e-02	0.0	6.800000e-01	1.000000e-02	0.0	6.900000e-01	1.000000e-02	0.0	7.000000e-01	1.000000e-02	0.0	7.100000e-01	1.000000e-02	0.0	7.200000e-01	1.000000e-02	0.0	7.300000e-01	1.000000e-02	0.0	7.400000e-01	1.000000e-02	0.0	7.500000e-01	1.000000e-02	0.0	7.600000e-01	1.000000e-02	0.0	7.700000e-01	1.000000e-02	0.0	7.800000e-01	1.000000e-02	0.0	7.900000e-01	1.000000e-02	0.0	8.000000e-01	1.000000e-02	0.0	8.100000e-01	1.000000e-02	0.0	8.200000e-01	1.000000e-02	0.0	8.300000e-01	1.000000e-02	0.0	8.400000e-01	1.000000e-02	0.0	8.500000e-01	1.000000e-02	0.0	8.600000e-01	1.000000e-02	0.0	8.700000e-01	1.000000e-02	0.0	8.800000e-01	1.000000e-02	0.0	8.900000e-01	1.000000e-02	0.0	9.000000e-01	1.000000e-02	0.0	9.100000e-01	1.000000e-02	0.0	9.200000e-01	1.000000e-02	0.0	9.300000e-01	1.000000e-02	0.0	9.400000e-01	1.000000e-02	0.0	9.500000e-01	1.000000e-02	0.0	9.600000e-01	1.000000e-02	0.0	9.700000e-01	1.000000e-02	0.0	9.800000e-01	1.000000e-02	0.0	9.900000e-01	1.000000e-02	0.0	1.000000e+00	1.000000e-02	0.0	0.000000e+00	2.000000e-02	0.0	1.000000e-02	2.000000e-02	0.0	2.000000e-02	2.000000e-02	0.0	3.000000e-02	2.000000e-02	0.0	4.000000e-02	2.000000e-02	0.0	5.000000e-02	2.000000e-02	0.0	6.000000e-02	2.000000e-02	0.0	7.000000e-02	2.000000e-02	0.0	8.000000e-02	2.000000e-02	0.0	9.000000e-02	2.000000e-02	0.0	1.000000e-01	2.000000e-02	0.0	1.100000e-01	2.000000e-02	0.0	1.200000e-01	2.000000e-02	0.0	1.300000e-01	2.000000e-02	0.0	1.400000e-01	2.000000e-02	0.0	1.500000e-01	2.000000e-02	0.0	1.600000e-01	2.000000e-02	0.0	1.700000e-01	2.000000e-02	0.0	1.800000e-01	2.000000e-02	0.0	1.900000e-01	2.000000e-02	0.0	2.000000e-01	2.000000e-02	0.0	2.100000e-01	2.000000e-02	0.0	2.200000e-01	2.000000e-02	0.0	2.300000e-01	2.000000e-02	0.0	2.400000e-01	2.000000e-02	0.0	2.500000e-01	2.000000e-02	0.0	2.600000e-01	2.000000e-02	0.0	2.700000e-01	2.000000e-02	0.0	2.800000e-01	2.000000e-02	0.0	2.900000e-01	2.000000e-02	0.0	3.000000e-01	2.000000e-02	0.0	3.100000e-01	2.000000e-02	0.0	3.200000e-01	2.000000e-02	0.0	3.300000e-01	2.000000e-02	0.0	3.400000e-01	2.000000e-02	0.0	3.500000e-01	2.000000e-02	0.0	3.600000e-01	2.000000e-02	0.0	3.700000e-01	2.000000e-02	0.0	3.800000e-01	2.000000e-02	0.0	3.900000e-01	2.000000e-02	0.0	4.000000e-01	2.000000e-02	0.0	4.100000e-01	2.000000e-02	0.0	4.200000e-01	2.000000e-02	0.0	4.300000e-01	2.000000e-02	0.0	4.400000e-01	2.000000e-02	0.0	4.500000e-01	2.000000e-02	0.0	4.600000e-01	2.000000e-02	0.0	4.700000e-01	2.000000e-02	0.0	4.800000e-01	2.000000e-02	0.0	4.900000e-01	2.000000e-02	0.0	5.000000e-01	2.000000e-02	0.0	5.100000e-01	2.000000e-02	0.0	5.200000e-01	2.000000e-02	0.0	5.300000e-01	2.000000e-02	0.0	5.400000e-01	2.000000e-02	0.0	5.500000e-01	2.000000e-02	0.0	5.600000e-01	2.000000e-02	0.0	5.700000e-01	2.000000e-02	0.0	5.800000e-01	2.000000e-02	0.0	5.900000e-01	2.000000e-02	0.0	6.000000e-01	2.000000e-02	0.0	6.100000e-01	2.000000e-02	0.0	6.200000e-01	2.000000e-02	0.0	6.300000e-01	2.000000e-02	0.0	6.400000e-01	2.000000e-02	0.0	6.500000e-01	2.000000e-02	0.0	6.600000e-01	2.000000e-02	0.0	6.700000e-01	2.000000e-02	0.0	6.800000e-01	2.000000e-02	0.0	6.900000e-01	2.000000e-02	0.0	7.000000e-01	2.000000e-02	0.0	7.100000e-01	2.000000e-02	0.0	7.200000e-01	2.000000e-02	0.0	7.300000e-01	2.000000e-02	0.0	7.400000e-01	2.000000e-02	0.0	7.500000e-01	2.000000e-02	0.0	7.600000e-01	2.000000e-02	0.0	7.700000e-01	2.000000e-02	0.0	7.800000e-01	2.000000e-02	0.0	7.900000e-01	2.000000e-02	0.0	8.000000e-01	2.000000e-02	0.0	8.100000e-01	2.000000e-02	0.0	8.200000e-01	2.000000e-02	0.0	8.300000e-01	2.000000e-02	0.0	8.400000e-01	2.000000e-02	0.0	8.500000e-01	2.000000e-02	0.0	8.600000e-01	2.000000e-02	0.0	8.700000e-01	2.000000e-02	0.0	8.800000e-01	2.000000e-02	0.0	8.900000e-01	2.000000e-02	0.0	9.000000e-01	2.000000e-02	0.0	9.100000e-01	2.000000e-02	0.0	9.200000e-01	2.000000e-02	0.0	9.300000e-01	2.000000e-02	0.0	9.400000e-01	2.000000e-02	0.0	9.500000e-01	2.000000e-02	0.0	9.600000e-01	2.000000e-02	0.0	9.700000e-01	2.000000e-02	0.0	9.800000e-01	2.000000e-02	0.0	9.900000e-01	2.000000e-02	0.0	1.000000e+00	2.000000e-02	0.0	0.000000e+00	3.000000e-02	0.0	1.000000e-02	3.000000e-02	0.0	2.000000e-02	3.000000e-02	0.0	3.000000e-02	3.000000e-02	0.0	4.000000e-02	3.000000e-02	0.0	5.000000e-02	3.000000e-02	0.0	6.000000e-02	3.000000e-02	0.0	7.000000e-02	3.000000e-02	0.0	8.000000e-02	3.000000e-02	0.0	9.000000e-02	3.000000e-02	0.0	1.000000e-01	3.000000e-02	0.0	1.100000e-01	3.000000e-02	0.0	1.200000e-01	3.000000e-02	0.0	1.300000e-01	3.000000e-02	0.0	1.400000e-01	3.000000e-02	0.0	1.500000e-01	3.000000e-02	0.0	1.600000e-01	3.000000e-02	0.0	1.700000e-01	3.000000e-02	0.0	1.800000e-01	3.000000e-02	0.0	1.900000e-01	3.000000e-02	0.0	2.000000e-01	3.000000e-02	0.0	2.100000e-01	3.000000e-02	0.0	2.200000e-01	3.000000e-02	0.0	2.300000e-01	3.000000e-02	0.0	2.400000e-01	3.000000e-02	0.0	2.500000e-01	3.000000e-02	0.0	2.600000e-01	3.000000
[...]
POINT_DATA 10201

SCALARS Height double 1
LOOKUP_TABLE default
9.994268e-01	9.994293e-01	9.994287e-01	9.994232e-01	9.994224e-01	9.994221e-01	9.994219e-01	9.994195e-01	9.994170e-01	9.994164e-01	9.994158e-01	9.994150e-01	9.994133e-01	9.994115e-01	9.994106e-01	9.994095e-01	9.994084e-01	9.994084e-01	9.994058e-01	9.994036e-01	9.994035e-01	9.994006e-01	9.993992e-01	9.993962e-01	9.993890e-01	9.993830e-01	9.993776e-01	9.993729e-01	9.993698e-01	9.993677e-01	9.993652e-01	9.993616e-01	9.993568e-01	9.993514e-01	9.993464e-01	9.993437e-01	9.993483e-01	9.993801e-01	9.995031e-01	9.999001e-01	1.000991e+00	1.003408e+00	1.007388e+00	1.011947e+00	1.015437e+00	1.017119e+00	1.017497e+00	1.017337e+00	1.016496e+00	1.014673e+00	1.011725e+00	1.007970e+00	1.003965e+00	1.000136e+00	9.967529e-01	9.940078e-01	9.920348e-01	9.908607e-01	9.903411e-01	9.902151e-01	9.902517e-01	9.904893e-01	9.910223e-01	9.918885e-01	9.929644e-01	9.940113e-01	9.948789e-01	9.955339e-01	9.960082e-01	9.963515e-01	9.966038e-01	9.967880e-01	9.969125e-01	9.969823e-01	9.970067e-01	9.970005e-01	9.969805e-01	9.969716e-01	9.970353e-01	9.973393e-01	9.982827e-01	1.000521e+00	1.004418e+00	1.009115e+00	1.012916e+00	1.014835e+00	1.015266e+00	1.015066e+00	1.014215e+00	1.012420e+00	1.009492e+00	1.005665e+00	1.001375e+00	9.970108e-01	9.928372e-01	9.890626e-01	9.859108e-01	9.835747e-01	9.821138e-01	9.814809e-01	9.812861e-01	9.994394e-01	9.994405e-01	9.994482e-01	9.994440e-01	9.994411e-01	9.994378e-01	9.994336e-01	9.994273e-01	9.994233e-01	9.994216e-01	9.994217e-01	9.994215e-01	9.994203e-01	9.994186e-01	9.994166e-01	9.994149e-01	9.994093e-01	9.994076e-01	9.994071e-01	9.994070e-01	9.994069e-01	9.994037e-01	9.994011e-01	9.993954e-01	9.993902e-01	9.993896e-01	9.993849e-01	9.993808e-01	9.993776e-01	9.993748e-01	9.993713e-01	9.993666e-01	9.993605e-01	9.993535e-01	9.993464e-01	9.993406e-01	9.993406e-01	9.993592e-01	9.994468e-01	9.997786e-01	1.000822e+00	1.003335e+00	1.007541e+00	1.012210e+00	1.015605e+00	1.017178e+00	1.017542e+00	1.017474e+00	1.016756e+00	1.014833e+00	1.011777e+00	1.007983e+00	1.003957e+00	1.000105e+00	9.967053e-01	9.939527e-01	9.919919e-01	9.908386e-01	9.903389e-01	9.902212e-01	9.902325e-01	9.904264e-01	9.909835e-01	9.918970e-01	9.929893e-01	9.940383e-01	9.949051e-01	9.955567e-01	9.960270e-01	9.963668e-01	9.966171e-01	9.968003e-01	9.969235e-01	9.969903e-01	9.970098e-01	9.969979e-01	9.969719e-01	9.969515e-01	9.969824e-01	9.972209e-01	9.981066e-01	1.000418e+00	1.004541e+00	1.009389e+00	1.013102e+00	1.014898e+00	1.015302e+00	1.015164e+00	1.014465e+00	1.012590e+00	1.009553e+00	1.005674e+00	1.001368e+00	9.969826e-01	9.927905e-01	9.890088e-01	9.858619e-01	9.835347e-01	9.820475e-01	9.814431e-01	9.812501e-01	9.994354e-01	9.994338e-01	9.994431e-01	9.994410e-01	9.994386e-01	9.994347e-01	9.994299e-01	9.994245e-01	9.994211e-01	9.994188e-01	9.994176e-01	9.994168e-01	9.994152e-01	9.994124e-01	9.994085e-01	9.994058e-01	9.994021e-01	9.994071e-01	9.994090e-01	9.994092e-01	9.994091e-01	9.994056e-01	9.994009e-01	9.993935e-01	9.993832e-01	9.993769e-01	9.993736e-01	9.993715e-01	9.993700e-01	9.993682e-01	9.993657e-01	9.993618e-01	9.993567e-01	9.993505e-01	9.993438e-01	9.993376e-01	9.993354e-01	9.993489e-01	9.994229e-01	9.997306e-01	1.000777e+00	1.003378e+00	1.007669e+00	1.012245e+00	1.015496e+00	1.017024e+00	1.017414e+00	1.017384e+00	1.016783e+00	1.014832e+00	1.011696e+00	1.007928e+00	1.003958e+00	1.000137e+00	9.967424e-01	9.940064e-01	9.920625e-01	9.909101e-01	9.903942e-01	9.902577e-01	9.902594e-01	9.904261e-01	9.909921e-01	9.919217e-01	9.929944e-01	9.940196e-01	9.948778e-01	9.955338e-01	9.960132e-01	9.963613e-01	9.966164e-01	9.968006e-01	9.969223e-01	9.969871e-01	9.970054e-01	9.969931e-01	9.969662e-01	9.969412e-01	9.969588e-01	9.971733e-01	9.980566e-01	1.000454e+00	1.004678e+00	1.009454e+00	1.013002e+00	1.014736e+00	1.015163e+00	1.015053e+00	1.014466e+00	1.012602e+00	1.009478e+00	1.005601e+00	1.001339e+00	9.969920e-01	9.928212e-01	9.890700e-01	9.859489e-01	9.836200e-01	9.821021e-01	9.815046e-01	9.813117e-01	9.994272e-01	9.994259e-01	9.994346e-01	9.994325e-01	9.994307e-01	9.994280e-01	9.994247e-01	9.994213e-01	9.994188e-01	9.994179e-01	9.994178e-01	9.994181e-01	9.994174e-01	9.994150e-01	9.994108e-01	9.994070e-01	9.994020e-01	9.994046e-01	9.994048e-01	9.994049e-01	9.994048e-01	9.994010e-01	9.993969e-01	9.993911e-01	9.993832e-01	9.993785e-01	9.993755e-01	9.993733e-01	9.993713e-01	9.993691e-01	9.993663e-01	9.993622e-01	9.993565e-01	9.993496e-01	9.993418e-01	9.993343e-01	9.993298e-01	9.993386e-01	9.994025e-01	9.996937e-01	1.000736e+00	1.003379e+00	1.007721e+00	1.012273e+00	1.015431e+00	1.016905e+00	1.017297e+00	1.017275e+00	1.016763e+00	1.014900e+00	1.011707e+00	1.007916e+00	1.003989e+00	1.000203e+00	9.968245e-01	9.940901e-01	9.921380e-01	9.909721e-01	9.904396e-01	9.902912e-01	9.902871e-01	9.904186e-01	9.909460e-01	9.918843e-01	9.929647e-01	9.939820e-01	9.948335e-01	9.954928e-01	9.959800e-01	9.963355e-01	9.965961e-01	9.967827e-01	9.969045e-01	9.969685e-01	9.969864e-01	9.969742e-01	9.969475e-01	9.969217e-01	9.969336e-01	9.971352e-01	9.980155e-01	1.000456e+00	1.004733e+00	1.009484e+00	1.012941e+00	1.014609e+00	1.015031e+00	1.014936e+00	1.014423e+00	1.012657e+00	1.009488e+00	1.005570e+00	1.001334e+00	9.970212e-01	9.928727e-01	9.891292e-01	9.860045e-01	9.836506e-01	9.821209e-01	9.815534e-01	9.813701e-01	9.994217e-01	9.994205e-01	9.994274e-01	9.994256e-01	9.994245e-01	9.994230e-01	9.994213e-01	9.994188e-01	9.994168e-01	9.994164e-01	9.994167e-01	9.994171e-01	9.994163e-01	9.994138e-01	9.994094e-01	9.994043e-01	9.993982e-01	9.993989e-01	9.993977e-01	9.993977e-01	9.993975e-01	9.993940e-01	9.993903e-01	9.993863e-01	9.993798e-01	9.993761e-01	9.993736e-01	9.993707e-01	9.993681e-01	9.993658e-01	9.993633e-01	9.993597e-01	9.993543e-01	9.993473e-01	9.993392e-01	9.993313e-01	9.993260e-01	9.993322e-01	9.993895e-01	9.996682e-01	1.000702e+00	1.003362e+00	1.007725e+00	1.012249e+00	1.015344e+00	1.016770e+00	1.017149e+00	1.017134e+00	1.016687e+00	1.014951e+00	1.011774e+00	1.007938e+00	1.004033e+00	1.000293e+00	9.969408e-01	9.942043e-01	9.922393e-01	9.910563e-01	9.905060e-01	9.903401e-01	9.903273e-01	9.904271e-01	9.908966e-01	9.918145e-01	9.929107e-01	9.939321e-01	9.947820e-01	9.954447e-01	9.959394e-01	9.963024e-01	9.965683e-01	9.967573e-01	9.968795e-01	9.969437e-01	9.969623e-01	9.969515e-01	9.969263e-01	9.969011e-01	9.969114e-01	9.971071e-01	9.979860e-01	1.000446e+00	1.004749e+00	1.009466e+00	1.012855e+00	1.014464e+00	1.014869e+00	1.014776e+00	1.014320e+00	1.012672e+00	1.009535e+00	1.005572e+00	1.001343e+00	9.970636e-01	9.929400e-01	9.892044e-01	9.860682e-01	9.836893e-01	9.821650e-01	9.816258e-01	9.814502e-01	9.994196e-01	9.994184e-01	9.994246e-01	9.994231e-01	9.994222e-01	9.994214e-01	9.994206e-01	9.994189e-01	9.994174e-01	9.994173e-01	9.994174e-01	9.994172e-01	9.994158e-01	9.994130e-01	9.994086e-01	9.994036e-01	9.993976e-01	9.993975e-01	9.993956e-01	9.993954e-01	9.993954e-01	9.993927e-01	9.993900e-01	9.993869e-01	9.993813e-01	9.993771e-01	9.993737e-01	9.993700e-01	9.993671e-01	9.993649e-01	9.993626e-01	9.993592e-01	9.993542e-01	9.993476e-01	9.993390e-01	9.993302e-01	9.993240e-01	9.993287e-01	9.993825e-01	9.996525e-01	1.000676e+00	1.003336e+00	1.007697e+00	1.012184e+00	1.015236e+00	1.016632e+00	1.017002e+00	1.016989e+00	1.016595e+00	1.014991e+00	1.011897e+00	1.008035e+00	1.004115e+00	1.000411e+00	9.970909e-01	9.943545e-01	9.923691e-01	9.911594e-01	9.905843e-01	9.904031e-01	9.903813e-01	9.904540e-01	9.908602e-01	9.917328e-01	9.928360e-01	9.938745e-01	9.947336e-01	9.954023e-01	9.959044e-01	9.962744e-01	9.965449e-01	9.967362e-01	9.968598e-01	9.969250e-01	9.969446e-01	9.969348e-01	9.969104e-01	9.968861e-01	9.968974e-01	9.970933e-01	9.979713e-01	1.000431e+00	1.004721e+00	1.009403e+00	1.012739e+00	1.014317e+00	1.014711e+00	1.014615e+00	1.014193e+00	1.012668e+00	1.009625e+00	1.005643e+00	1.001389e+00	9.971319e-01	9.930327e-01	9.892975e-01	9.861381e-01	9.837355e-01	9.822311e-01	9.817195e-01	9.815530e-01	9.994201e-01	9.994193e-01	9.994242e-01	9.994225e-01	9.994214e-01	9.994206e-01	9.994205e-01	9.994201e-01	9.994197e-01	9.994193e-01	9.994192e-01	9.994188e-01	9.994168e-01	9.994134e-01	9.994089e-01	9.994042e-01	9.993996e-01	9.993983e-01	9.993964e-01	9.993961e-01	9.993961e-01	9.993939e-01	9.993927e-01	9.993889e-01	9.993834e-01	9.993789e-01	9.993749e-01	9.993710e-01	9.993680e-01	9.993658e-01	9.993636e-01	9.993605e-01	9.993551e-01	9.993471e-01	9.993375e-01	9.993287e-01	9.993225e-01	9.993276e-01	9.993797e-01	9.996459e-01	1.000661e+00	1.003303e+00	1.007631e+00	1.012080e+00	1.015098e+00	1.016482e+00	1.016851e+00	1.016842e+00	1.016496e+00	1.015021e+00	1.012050e+00	1.008208e+00	1.004261e+00	1.000570e+00	9.972750e-01	9.945436e-01	9.925369e-01	9.912914e-01	9.906819e-01	9.904797e-01	9.904507e-01	9.905009e-01	9.908417e-01	9.916536e-01	9.927484e-01	9.938066e-01	9.946819e-01	9.953599e-01	9.958705e-01	9.962488e-01	9.965248e-01	9.967192e-01	9.968446e-01	9.969108e-01	9.969309e-01	9.969215e-01	9.968978e-01	9.968750e-01	9.968895e-01	9.970917e-01	9.979728e-01	1.000415e+00	1.004661e+00	1.009289e+00	1.012587e+00	1.014152e+00	1.014546e+00	1.014451e+00	1.014058e+00	1.012652e+00	1.009737e+00	1.005783e+00	1.001494e+00	9.972349e-01	9.931510e-01	9.894093e-01	9.862182e-01	9.837950e-01	9.823222e-01	9.818429e-01	9.816847e-01	9.994189e-01	9.994187e-01	9.994231e-01	9.994208e-01	9.994200e-01	9.994199e-01	9.994198e-01	9.994193e-01	9.994202e-01	9.994210e-01	9.994211e-01	9.994208e-01	9.994189e-01	9.994153e-01	9.994108e-01	9.994063e-01	9.994027e-01	9.993990e-01	9.993992e-01	9.993978e-01	9.993976e-01	9.993956e-01	9.993949e-01	9.993905e-01	9.993861e-01	9.993816e-01	9.993775e-01	9.993739e-01	9.993709e-01	9.993684e-01	9.993654e-01	9.993602e-01	9.993534e-01	9.993441e-01	9.993350e-01	9.993267e-01	9.993215e-01	9.993261e-01	9.993779e-01	9.996435e-01	1.000652e+00	1.003265e+00	1.007537e+00	1.011931e+00	1.014923e+00	1.016310e+00	1.016688e+00	1.016686e+00	1.016384e+00	1.015038e+00	1.012211e+00	1.008430e+00	1.004474e+00	1.000772e+00	9.974916e-01	9.947678e-01	9.927400e-01	9.914539e-01	9.908015e-01	9.905677e-01	9.905306e-01	9.905621e-01	9.908362e-01	9.915741e-01	9.926449e-01	9.937189e-01	9.946147e-01	9.953076e-01	9.958301e-01	9.962184e-01	9.965016e-01	9.967002e-01	9.968274e-01	9.968944e-01	9.969150e-01	9.969062e-01	9.968839e-01	9.968634e-01	9.968836e-01	9.970973e-01	9.979867e-01	1.000400e+00	1.004570e+00	1.009127e+00	1.012394e+00	1.013959e+00	1.014364e+00	1.014274e+00	1.013914e+00	1.012623e+00	1.009850e+00	1.005963e+00	1.001660e+00	9.973748e-01	9.932893e-01	9.895354e-01	9.863115e-01	9.838773e-01	9.824461e-01	9.819911e-01	9.818369e-01	9.994159e-01	9.994190e-01	9.994207e-01	9.994194e-01	9.994186e-01	9.994186e-01	9.994188e-01	9.994191e-01	9.994188e-01	9.994202e-01	9.994214e-01	9.994214e-01	9.994198e-01	9.994168e-01	9.994127e-01	9.994085e-01	9.994040e-01	9.994013e-01	9.993984e-01	9.993983e-01	9.993974e-01	9.993964e-01	9.993940e-01	9.993898e-01	9.993875e-01	9.993835e-01	9.993799e-01	9.993765e-01	9.993732e-01	9.993695e-01	9.993644e-01	9.993581e-01	9.993504e-01	9.993399e-01	9.993318e-01	9.993257e-01	9.993211e-01	9.993257e-01	9.993775e-01	9.996454e-01	1.000653e+00	1.003228e+00	1.007414e+00	1.011738e+00	1.014710e+00	1.016108e+00	1.016504e+00	1.016513e+00	1.016253e+00	1.015034e+00	1.012363e+00	1.008668e+00	1.004721e+00	1.001012e+00	9.977409e-01	9.950220e-01	9.929707e-01	9.916383e-01	9.909378e-01	9.906687e-01	9.906148e-01	9.906298e-01	9.908374e-01	9.914861e-01	9.925163e-01	9.936037e-01	9.945269e-01	9.952413e-01	9.957789e-01	9.961789e-01	9.964704e-01	9.966734e-01	9.968027e-01	9.968709e-01	9.968926e-01	9.968856e-01	9.968656e-01	9.968487e-01	9.968764e-01	9.971060e-01	9.980088e-01	1.000386e+00	1.004454e+00	1.008920e+00	1.012159e+00	1.013734e+00	1.014155e+00	1.014074e+00	1.013747e+00	1.012568e+00	1.009949e+00	1.006154e+00	1.001857e+00	9.975443e-01	9.934399e-01	9.896685e-01	9.864203e-01	9.839911e-01	9.826036e-01	9.821621e-01	9.820087e-01	9.994139e-01	9.994174e-01	9.994182e-01	9.994180e-01	9.994171e-01	9.994170e-01	9.994174e-01	9.994181e-01	9.994190e-01	9.994185e-01	9.994194e-01	9.994195e-01	9.994184e-01	9.994158e-01	9.994125e-01	9.994088e-01	9.994044e-01	9.994016e-01	9.993984e-01	9.993957e-01	9.993947e-01	9.993928e-01	9.993920e-01	9.993897e-01	9.993862e-01	9.993834e-01	9.993804e-01	9.993770e-01	9.993731e-01	9.993683e-01	9.993622e-01	9.993554e-01	9.993466e-01	9.993354e-01	9.993281e-01	9.993238e-01	9.993214e-01	9.993267e-01	9.993789e-01	9.996524e-01	1.000663e+00	1.003190e+00	1.007268e+00	1.011506e+00	1.014461e+00	1.015878e+00	1.016296e+00	1.016316e+00	1.016098e+00	1.015006e+00	1.012505e+00	1.008916e+00	1.004998e+00	1.001289e+00	9.980225e-01	9.953050e-01	9.932276e-01	9.918419e-01	9.910849e-01	9.907759e-01	9.907002e-01	9.907020e-01	9.908455e-01	9.913916e-01	9.923614e-01	9.934560e-01	9.944119e-01	9.951559e-01	9.957142e-01	9.961283e-01	9.964288e-01	9.966366e-01	9.967686e-01	9.968388e-01	9.968634e-01	9.968596e-01	9.968431e-01	9.968307e-01	9.968681e-01	9.971174e-01	9.980374e-01	1.000375e+00	1.004321e+00	1.008674e+00	1.011882e+00	1.013476e+00	1.013920e+00	1.013848e+00	1.013549e+00	1.012480e+00	1.010023e+00	1.006340e+00	1.002072e+00	9.977365e-01	9.935995e-01	9.898016e-01	9.865442e-01	9.841379e-01	9.827999e-01	9.823548e-01	9.821892e-01	9.994110e-01	9.994142e-01	9.994158e-01	9.994162e-01	9.994153e-01	9.994150e-01	9.994156e-01	9.994169e-01	9.994185e-01	9.994181e-01	9.994166e-01	9.994164e-01	9.994150e-01	9.994132e-01	9.994108e-01	9.994080e-01	9.994044e-01	9.994017e-01	9.993989e-01	9.993966e-01	9.993945e-01	9.993928e-01	9.993905e-01	9.993874e-01	9.993845e-01	9.993819e-01	9.993790e-01	9.993757e-01	9.993715e-01	9.993661e-01	9.993593e-01	9.993517e-01	9.993424e-01	9.993312e-01	9.993251e-01	9.993222e-01	9.993216e-01	9.993282e-01	9.993824e-01	9.996657e-01	1.000682e+00	1.003153e+00	1.007101e+00	1.011239e+00	1.014179e+00	1.015623e+00	1.016065e+00	1.016097e+00	1.015916e+00	1.014952e+00	1.012634e+00	1.009176e+00	1.005307e+00	1.001604e+00	9.983374e-01	9.956169e-01	9.935136e-01	9.920714e-01	9.912474e-01	9.908877e-01	9.907865e-01	9.907770e-01	9.908682e-01	9.913051e-01	9.921920e-01	9.932790e-01	9.942686e-01	9.950495e-01	9.956341e-01	9.960654e-01	9.963770e-01	9.965916e-01	9.967274e-01	9.968011e-01	9.968296e-01	9.968300e-01	9.968175e-01	9.968111e-01	9.968608e-01	9.971338e-01	9.980738e-01	1.000366e+00	1.004175e+00	1.008397e+00	1.011567e+00	1.013184e+00	1.013659e+00	1.013598e+00	1.013319e+00	1.012358e+00	1.010068e+00	1.006517e+00	1.002296e+00	9.979456e-01	9.937681e-01	9.899373e-01	9.866801e-01	9.843151e-01	9.830252e-01	9.825646e-01	9.823804e-01	9.994074e-01	9.994105e-01	9.994132e-01	9.994144e-01	9.994136e-01	9.994133e-01	9.994142e-01	9.994162e-01	9.994178e-01	9.994177e-01	9.994158e-01	9.994134e-01	9.994121e-01	9.994103e-01	9.994088e-01	9.994068e-01	9.994039e-01	9.994013e-01	9.993982e-01	9.993949e-01	9.993921e-01	9.993896e-01	9.993877e-01	9.993848e-01	9.993821e-01	9.993797e-01	9.993768e-01	9.993734e-01	9.993692e-01	9.993636e-01	9.993568e-01	9.993488e-01	9.993395e-01	9.993291e-01	9.993236e-01	9.993212e-01	9.993212e-01	9.993292e-01	9.993883e-01	9.996867e-01	1.000710e+00	1.003116e+00	1.006920e+00	1.010943e+00	1.013863e+00	1.015341e+00	1.015815e+00	1.015860e+00	1.015715e+00	1.014878e+00	1.012751e+00	1.009447e+00	1.005649e+00	1.001960e+00	9.986891e-01	9.959591e-01	9.938293e-01	9.923320e-01	9.914355e-01	9.910134e-01	9.908784e-01	9.908568e-01	9.909092e-01	9.912404e-01	9.920250e-01	9.930846e-01	9.941028e-01	9.949238e-01	9.955398e-01	9.959922e-01	9.963177e-01	9.965414e-01	9.966832e-01	9.967614e-01	9.967939e-01	9.967982e-01	9.967900e-01	9.967915e-01	9.968567e-01	9.971570e-01	9.981176e-01	1.000360e+00	1.004019e+00	1.008094e+00	1.011218e+00	1.012862e+00	1.013372e+00	1.013325e+00	1.013067e+00	1.012207e+00	1.010090e+00	1.006685e+00	1.002529e+00	9.981706e-01	9.939500e-01	9.900869e-01	9.868425e-01	9.845339e-01	9.832877e-01	9.828020e-01	9.825936e-01	9.994038e-01	9.994064e-01	9.994106e-01	9.994123e-01	9.994118e-01	9.994118e-01	9.994130e-01	9.994154e-01	9.994173e-01	9.994174e-01	9.994151e-01	9.994127e-01	9.994101e-01	9.994091e-01	9.994077e-01	9.994064e-01	9.994041e-01	9.994015e-01	9.993982e-01	9.993943e-01	9.993904e-01	9.993876e-01	9.993858e-01	9.993834e-01	9.993809e-01	9.993785e-01	9.993755e-01	9.993716e-01	9.993674e-01	9.993623e-01	9.993558e-01	9.993483e-01	9.993383e-01	9.993285e-01	9.993228e-01	9.993203e-01	9.993200e-01	9.993289e-01	9.993966e-01	9.997158e-01	1.000743e+00	1.003080e+00	1.006731e+00	1.010623e+00	1.013514e+00	1.015030e+00	1.015545e+00	1.015608e+00	1.015497e+00	1.014785e+00	1.012858e+00	1.009728e+00	1.006021e+00	1.002358e+00	9.990832e-01	9.963373e-01	9.941763e-01	9.926236e-01	9.916540e-01	9.911630e-01	9.909843e-01	9.909480e-01	9.909694e-01	9.912017e-01	9.918690e-01	9.928820e-01	9.939216e-01	9.947842e-01	9.954360e-01	9.959133e-01	9.962555e-01	9.964905e-01	9.966395e-01	9.967218e-01	9.967573e-01	9.967647e-01	9.967619e-01	9.967724e-01	9.968564e-01	9.971869e-01	9.981676e-01	1.000356e+00	1.003857e+00	1.007773e+00	1.010842e+00	1.012512e+00	1.013063e+00	1.013033e+00	1.012795e+00	1.012034e+00	1.010094e+00	1.006850e+00	1.002774e+00	9.984150e-01	9.941544e-01	9.902665e-01	9.870518e-01	9.848113e-01	9.835941e-01	9.830736e-01	9.828347e-01	9.994019e-01	9.994034e-01	9.994086e-01	9.994104e-01	9.994103e-01	9.994105e-01	9.994119e-01	9.994147e-01	9.994169e-01	9.994172e-01	9.994155e-01	9.994128e-01	9.994106e-01	9.994084e-01	9.994079e-01	9.994062e-01	9.994039e-01	9.994012e-01	9.993974e-01	9.993928e-01	9.993884e-01	9.993857e-01	9.993842e-01	9.993824e-01	9.993804e-01	9.993782e-01	9.993756e-01	9.993722e-01	9.993677e-01	9.993619e-01	9.993553e-01	9.993473e-01	9.993373e-01	9.993282e-01	9.993218e-01	9.993189e-01	9.993178e-01	9.993276e-01	9.994081e-01	9.997503e-01	1.000782e+00	1.003046e+00	1.006539e+00	1.010288e+00	1.013139e+00	1.014690e+00	1.015253e+00	1.015338e+00	1.015259e+00	1.014671e+00	1.012951e+00	1.010012e+00	1.006417e+00	1.002795e+00	9.995225e-01	9.967589e-01	9.945611e-01	9.929484e-01	9.919026e-01	9.913393e-01	9.911097e-01	9.910518e-01	9.910496e-01	9.911939e-01	9.917286e-01	9.926723e-01	9.937252e-01	9.946333e-01	9.953263e-01	9.958326e-01	9.961938e-01	9.964411e-01	9.965973e-01	9.966832e-01	9.967208e-01	9.967312e-01	9.967337e-01	9.967547e-01	9.968585e-01	9.972208e-01	9.982211e-01	1.000351e+00	1.003690e+00	1.007438e+00	1.010441e+00	1.012136e+00	1.012731e+00	1.012727e+00	1.012502e+00	1.011837e+00	1.010078e+00	1.007011e+00	1.003030e+00	9.986802e-01	9.943874e-01	9.904889e-01	9.873245e-01	9.851575e-01	9.839464e-01	9.833792e-01	9.831021e-01	9.994026e-01	9.994024e-01	9.994080e-01	9.994090e-01	9.994090e-01	9.994094e-01	9.994110e-01	9.994139e-01	9.994164e-01	9.994170e-01	9.994158e-01	9.994134e-01	9.994113e-01	9.994095e-01	9.994070e-01	9.994064e-01	9.994034e-01	9.994001e-01	9.993957e-01	9.993905e-01	9.993858e-01	9.993835e-01	9.993827e-01	9.993817e-01	9.993801e-01	9.993790e-01	9.993760e-01	9.993716e-01	9.993667e-01	9.993616e-01	9.993549e-01	9.993463e-01	9.993367e-01	9.993274e-01	9.993202e-01	9.993162e-01	9.993142e-01	9.993268e-01	9.994233e-01	9.997889e-01	1.000824e+00	1.003015e+00	1.006345e+00	1.009943e+00	1.012743e+00	1.014325e+00	1.014936e+00	1.015046e+00	1.014996e+00	1.014528e+00	1.013021e+00	1.010291e+00	1.006825e+00	1.003260e+00	1.000002e+00	9.972257e-01	9.949899e-01	9.933132e-01	9.921853e-01	9.915412e-01	9.912529e-01	9.911646e-01	9.911497e-01	9.912192e-01	9.916093e-01	9.924538e-01	9.935077e-01	9.944644e-01	9.952070e-01	9.957485e-01	9.961316e-01	9.963916e-01	9.965548e-01	9.966442e-01	9.966843e-01	9.966979e-01	9.967057e-01	9.967367e-01	9.968606e-01	9.972552e-01	9.982750e-01	1.000345e+00	1.003518e+00	1.007092e+00	1.010021e+00	1.011736e+00	1.012376e+00	1.012401e+00	1.012186e+00	1.011609e+00	1.010032e+00	1.007156e+00	1.003285e+00	9.989562e-01	9.946434e-01	9.907574e-01	9.876680e-01	9.855752e-01	9.843442e-01	9.837185e-01	9.833952e-01	9.994058e-01	9.994041e-01	9.994080e-01	9.994087e-01	9.994083e-01	9.994085e-01	9.994098e-01	9.994126e-01	9.994156e-01	9.994164e-01	9.994158e-01	9.994137e-01	9.994115e-01	9.994095e-01	9.994072e-01	9.994043e-01	9.994025e-01	9.993983e-01	9.993933