# vtk DataFile Version 3.0
vtk output
ASCII
DATASET STRUCTURED_GRID
DIMENSIONS 101 101 1
POINTS 10201 double
0.000000e+00	0.000000e+00	0.0	1.000000e-02	0.000000e+00	0.0	2.000000e-02	0.000000e+00	0.0	3.000000e-02	0.000000e+00	0.0	4.000000e-02	0.000000e+00	0.0	5.000000e-02	0.000000e+00	0.0	6.000000e-02	0.000000e+00	0.0	7.000000e-02	0.000000e+00	0.0	8.000000e-02	0.000000e+00	0.0	9.000000e-02	0.000000e+00	0.0	1.000000e-01	0.000000e+00	0.0	1.100000e-01	0.000000e+00	0.0	1.200000e-01	0.000000e+00	0.0	1.300000e-01	0.000000e+00	0.0	1.400000e-01	0.000000e+00	0.0	1.500000e-01	0.000000e+00	0.0	1.600000e-01	0.000000e+00	0.0	1.700000e-01	0.000000e+00	0.0	1.800000e-01	0.000000e+00	0.0	1.900000e-01	0.000000e+00	0.0	2.000000e-01	0.000000e+00	0.0	2.100000e-01	0.000000e+00	0.0	2.200000e-01	0.000000e+00	0.0	2.300000e-01	0.000000e+00	0.0	2.400000e-01	0.000000e+00	0.0	2.500000e-01	0.000000e+00	0.0	2.600000e-01	0.000000e+00	0.0	2.700000e-01	0.000000e+00	0.0	2.800000e-01	0.000000e+00	0.0	2.900000e-01	0.000000e+00	0.0	3.000000e-01	0.000000e+00	0.0	3.100000e-01	0.000000e+00	0.0	3.200000e-01	0.000000e+00	0.0	3.300000e-01	0.000000e+00	0.0	3.400000e-01	0.000000e+00	0.0	3.500000e-01	0.000000e+00	0.0	3.600000e-01	0.000000e+00	0.0	3.700000e-01	0.000000e+00	0.0	3.800000e-01	0.000000e+00	0.0	3.900000e-01	0.000000e+00	0.0	4.000000e-01	0.000000e+00	0.0	4.100000e-01	0.000000e+00	0.0	4.200000e-01	0.000000e+00	0.0	4.300000e-01	0.000000e+00	0.0	4.400000e-01	0.000000e+00	0.0	4.500000e-01	0.000000e+00	0.0	4.600000e-01	0.000000e+00	0.0	4.700000e-01	0.000000e+00	0.0	4.800000e-01	0.000000e+00	0.0	4.900000e-01	0.000000e+00	0.0	5.000000e-01	0.000000e+00	0.0	5.100000e-01	0.000000e+00	0.0	5.200000e-01	0.000000e+00	0.0	5.300000e-01	0.000000e+00	0.0	5.400000e-01	0.000000e+00	0.0	5.500000e-01	0.000000e+00	0.0	5.600000e-01	0.000000e+00	0.0	5.700000e-01	0.000000e+00	0.0	5.800000e-01	0.000000e+00	0.0	5.900000e-01	0.000000e+00	0.0	6.000000e-01	0.000000e+00	0.0	6.100000e-01	0.000000e+00	0.0	6.200000e-01	0.000000e+00	0.0	6.300000e-01	0.000000e+00	0.0	6.400000e-01	0.000000e+00	0.0	6.500000e-01	0.000000e+00	0.0	6.600000e-01	0.000000e+00	0.0	6.700000e-01	0.000000e+00	0.0	6.800000e-01	0.000000e+00	0.0	6.900000e-01	0.000000e+00	0.0	7.000000e-01	0.000000e+00	0.0	7.100000e-01	0.000000e+00	0.0	7.200000e-01	0.000000e+00	0.0	7.300000e-01	0.000000e+00	0.0	7.400000e-01	0.000000e+00	0.0	7.500000e-01	0.000000e+00	0.0	7.600000e-01	0.000000e+00	0.0	7.700000e-01	0.000000e+00	0.0	7.800000e-01	0.000000e+00	0.0	7.900000e-01	0.000000e+00	0.0	8.000000e-01	0.000000e+00	0.0	8.100000e-01	0.000000e+00	0.0	8.200000e-01	0.000000e+00	0.0	8.300000e-01	0.000000e+00	0.0	8.400000e-01	0.000000e+00	0.0	8.500000e-01	0.000000e+00	0.0	8.600000e-01	0.000000e+00	0.0	8.700000e-01	0.000000e+00	0.0	8.800000e-01	0.000000e+00	0.0	8.900000e-01	0.000000e+00	0.0	9.000000e-01	0.000000e+00	0.0	9.100000e-01	0.000000e+00	0.0	9.200000e-01	0.000000e+00	0.0	9.300000e-01	0.000000e+00	0.0	9.400000e-01	0.000000e+00	0.0	9.500000e-01	0.000000e+00	0.0	9.600000e-01	0.000000e+00	0.0	9.700000e-01	0.000000e+00	0.0	9.800000e-01	0.000000e+00	0.0	9.900000e-01	0.000000e+00	0.0	1.000000e+00	0.000000e+00	0.0	0.000000e+00	1.000000e-02	0.0	1.000000e-02	1.000000e-02	0.0	2.000000e-02	1.000000e-02	0.0	3.000000e-02	1.000000e-02	0.0	4.000000e-02	1.000000e-02	0.0	5.000000e-02	1.000000e-02	0.0	6.000000e-02	1.000000e-02	0.0	7.000000e-02	1.000000e-02	0.0	8.000000e-02	1.000000e-02	0.0	9.000000e-02	1.000000e-02	0.0	1.000000e-01	1.000000e-02	0.0	1.100000e-01	1.000000e-02	0.0	1.200000e-01	1.000000e-02	0.0	1.300000e-01	1.000000e-02	0.0	1.400000e-01	1.000000e-02	0.0	1.500000e-01	1.000000e-02	0.0	1.600000e-01	1.000000e-02	0.0	1.700000e-01	1.000000e-02	0.0	1.800000e-01	1.000000e-02	0.0	1.900000e-01	1.000000e-02	0.0	2.000000e-01	1.000000e-02	0.0	2.100000e-01	1.000000e-02	0.0	2.200000e-01	1.000000e-02	0.0	2.300000e-01	1.000000e-02	0.0	2.400000e-01	1.000000e-02	0.0	2.500000e-01	1.000000e-02	0.0	2.600000e-01	1.000000e-02	0.0	2.700000e-01	1.000000e-02	0.0	2.800000e-01	1.000000e-02	0.0	2.900000e-01	1.000000e-02	0.0	3.000000e-01	1.000000e-02	0.0	3.100000e-01	1.000000e-02	0.0	3.200000e-01	1.000000e-02	0.0	3.300000e-01	1.000000e-02	0.0	3.400000e-01	1.000000e-02	0.0	3.500000e-01	1.000000e-02	0.0	3.600000e-01	1.000000e-02	0.0	3.700000e-01	1.000000e-02	0.0	3.800000e-01	1.000000e-02	0.0	3.900000e-01	1.000000e-02	0.0	4.000000e-01	1.000000e-02	0.0	4.100000e-01	1.000000e-02	0.0	4.200000e-01	1.000000e-02	0.0	4.300000e-01	1.000000e-02	0.0	4.400000e-01	1.000000e-02	0.0	4.500000e-01	1.000000e-02	0.0	4.600000e-01	1.000000e-02	0.0	4.700000e-01	1.000000e-02	0.0	4.800000e-01	1.000000e-02	0.0	4.900000e-01	1.000000e-02	0.0	5.000000e-01	1.000000e-02	0.0	5.100000e-01	1.000000e-02	0.0	5.200000e-01	1.000000e-02	0.0	5.300000e-01	1.000000e-02	0.0	5.400000e-01	1.000000e-02	0.0	5.500000e-01	1.000000e-02	0.0	5.600000e-01	1.000000e-02	0.0	5.700000e-01	1.000000e-02	0.0	5.800000e-01	1.000000e-02	0.0	5.900000e-01	1.000000e-02	0.0	6.000000e-01	1.000000e-02	0.0	6.100000e-01	1.000000e-02	0.0	6.200000e-01	1.000000e-02	0.0	6.300000e-01	1.000000e-02	0.0	6.400000e-01	1.000000e-02	0.0	6.500000e-01	1.000000e-02	0.0	6.600000e-01	1.000000e-02	0.0	6.700000e-01	1.000000e-02	0.0	6.800000e-01	1.000000e-02	0.0	6.900000e-01	1.000000e-02	0.0	7.000000e-01	1.000000e-02	0.0	7.100000e-01	1.000000e-02	0.0	7.200000e-01	1.000000e-02	0.0	7.300000e-01	1.000000e-02	0.0	7.400000e-01	1.000000e-02	0.0	7.500000e-01	1.000000e-02	0.0	7.600000e-01	1.000000e-02	0.0	7.700000e-01	1.000000e-02	0.0	7.800000e-01	1.000000e-02	0.0	7.900000e-01	1.000000e-02	0.0	8.000000e-01	1.000000e-02	0.0	8.100000e-01	1.000000e-02	0.0	8.200000e-01	1.000000e-02	0.0	8.300000e-01	1.000000e-02	0.0	8.400000e-01	1.000000e-02	0.0	8.500000e-01	1.000000e-02	0.0	8.600000e-01	1.000000e-02	0.0	8.700000e-01	1.000000e-02	0.0	8.800000e-01	1.000000e-02	0.0	8.900000e-01	1.000000e-02	0.0	9.000000e-01	1.000000e-02	0.0	9.100000e-01	1.000000e-02	0.0	9.200000e-01	1.000000e-02	0.0	9.300000e-01	1.000000e-02	0.0	9.400000e-01	1.000000e-02	0.0	9.500000e-01	1.000000e-02	0.0	9.600000e-01	1.000000e-02	0.0	9.700000e-01	1.000000e-02	0.0	9.800000e-01	1.000000e-02	0.0	9.900000e-01	1.000000e-02	0.0	1.000000e+00	1.000000e-02	0.0	0.000000e+00	2.000000e-02	0.0	1.000000e-02	2.000000e-02	0.0	2.000000e-02	2.000000e-02	0.0	3.000000e-02	2.000000e-02	0.0	4.000000e-02	2.000000e-02	0.0	5.000000e-02	2.000000e-02	0.0	6.000000e-02	2.000000e-02	0.0	7.000000e-02	2.000000e-02	0.0	8.000000e-02	2.000000e-02	0.0	9.000000e-02	2.000000e-02	0.0	1.000000e-01	2.000000e-02	0.0	1.100000e-01	2.000000e-02	0.0	1.200000e-01	2.000000e-02	0.0	1.300000e-01	2.000000e-02	0.0	1.400000e-01	2.000000e-02	0.0	1.500000e-01	2.000000e-02	0.0	1.600000e-01	2.000000e-02	0.0	1.700000e-01	2.000000e-02	0.0	1.800000e-01	2.000000e-02	0.0	1.900000e-01	2.000000e-02	0.0	2.000000e-01	2.000000e-02	0.0	2.100000e-01	2.000000e-02	0.0	2.200000e-01	2.000000e-02	0.0	2.300000e-01	2.000000e-02	0.0	2.400000e-01	2.000000e-02	0.0	2.500000e-01	2.000000e-02	0.0	2.600000e-01	2.000000e-02	0.0	2.700000e-01	2.000000e-02	0.0	2.800000e-01	2.000000e-02	0.0	2.900000e-01	2.000000e-02	0.0	3.000000e-01	2.000000e-02	0.0	3.100000e-01	2.000000e-02	0.0	3.200000e-01	2.000000e-02	0.0	3.300000e-01	2.000000e-02	0.0	3.400000e-01	2.000000e-02	0.0	3.500000e-01	2.000000e-02	0.0	3.600000e-01	2.000000e-02	0.0	3.700000e-01	2.000000e-02	0.0	3.800000e-01	2.000000e-02	0.0	3.900000e-01	2.000000e-02	0.0	4.000000e-01	2.000000e-02	0.0	4.100000e-01	2.000000e-02	0.0	4.200000e-01	2.000000e-02	0.0	4.300000e-01	2.000000e-02	0.0	4.400000e-01	2.000000e-02	0.0	4.500000e-01	2.000000e-02	0.0	4.600000e-01	2.000000e-02	0.0	4.700000e-01	2.000000e-02	0.0	4.800000e-01	2.000000e-02	0.0	4.900000e-01	2.000000e-02	0.0	5.000000e-01	2.000000e-02	0.0	5.100000e-01	2.000000e-02	0.0	5.200000e-01	2.000000e-02	0.0	5.300000e-01	2.000000e-02	0.0	5.400000e-01	2.000000e-02	0.0	5.500000e-01	2.000000e-02	0.0	5.600000e-01	2.000000e-02	0.0	5.700000e-01	2.000000e-02	0.0	5.800000e-01	2.000000e-02	0.0	5.900000e-01	2.000000e-02	0.0	6.000000e-01	2.000000e-02	0.0	6.100000e-01	2.000000e-02	0.0	6.200000e-01	2.000000e-02	0.0	6.300000e-01	2.000000e-02	0.0	6.400000e-01	2.000000e-02	0.0	6.500000e-01	2.000000e-02	0.0	6.600000e-01	2.000000e-02	0.0	6.700000e-01	2.000000e-02	0.0	6.800000e-01	2.000000e-02	0.0	6.900000e-01	2.000000e-02	0.0	7.000000e-01	2.000000e-02	0.0	7.100000e-01	2.000000e-02	0.0	7.200000e-01	2.000000e-02	0.0	7.300000e-01	2.000000e-02	0.0	7.400000e-01	2.000000e-02	0.0	7.500000e-01	2.000000e-02	0.0	7.600000e-01	2.000000e-02	0.0	7.700000e-01	2.000000e-02	0.0	7.800000e-01	2.000000e-02	0.0	7.900000e-01	2.000000e-02	0.0	8.000000e-01	2.000000e-02	0.0	8.100000e-01	2.000000e-02	0.0	8.200000e-01	2.000000e-02	0.0	8.300000e-01	2.000000e-02	0.0	8.400000e-01	2.000000e-02	0.0	8.500000e-01	2.000000e-02	0.0	8.600000e-01	2.000000e-02	0.0	8.700000e-01	2.000000e-02	0.0	8.800000e-01	2.000000e-02	0.0	8.900000e-01	2.000000e-02	0.0	9.000000e-01	2.000000e-02	0.0	9.100000e-01	2.000000e-02	0.0	9.200000e-01	2.000000e-02	0.0	9.300000e-01	2.000000e-02	0.0	9.400000e-01	2.000000e-02	0.0	9.500000e-01	2.000000e-02	0.0	9.600000e-01	2.000000e-02	0.0	9.700000e-01	2.000000e-02	0.0	9.800000e-01	2.000000e-02	0.0	9.900000e-01	2.000000e-02	0.0	1.000000e+00	2.000000e-02	0.0	0.000000e+00	3.000000e-02	0.0	1.000000e-02	3.000000e-02	0.0	2.000000e-02	3.000000e-02	0.0	3.000000e-02	3.000000e-02	0.0	4.000000e-02	3.000000e-02	0.0	5.000000e-02	3.000000e-02	0.0	6.000000e-02	3.000000e-02	0.0	7.000000e-02	3.000000e-02	0.0	8.000000e-02	3.000000e-02	0.0	9.000000e-02	3.000000e-02	0.0	1.000000e-01	3.000000e-02	0.0	1.100000e-01	3.000000e-02	0.0	1.200000e-01	3.000000e-02	0.0	1.300000e-01	3.000000e-02	0.0	1.400000e-01	3.000000e-02	0.0	1.500000e-01	3.000000e-02	0.0	1.600000e-01	3.000000e-02	0.0	1.700000e-01	3.000000e-02	0.0	1.800000e-01	3.000000e-02	0.0	1.900000e-01	3.000000e-02	0.0	2.000000e-01	3.000000e-02	0.0	2.100000e-01	3.000000e-02	0.0	2.200000e-01	3.000000e-02	0.0	2.300000e-01	3.000000e-02	0.0	2.400000e-01	3.000000e-02	0.0	2.500000e-01	3.000000e-02	0.0	2.600000e-01	3.000000
[...]
POINT_DATA 10201

SCALARS Height double 1
LOOKUP_TABLE default
9.899494e-01	9.898242e-01	9.897937e-01	9.895760e-01	9.892945e-01	9.888814e-01	9.881909e-01	9.870058e-01	9.851005e-01	9.824793e-01	9.795032e-01	9.767549e-01	9.747330e-01	9.736818e-01	9.736131e-01	9.747684e-01	9.778947e-01	9.829186e-01	9.898862e-01	9.988649e-01	1.009336e+00	1.020012e+00	1.029396e+00	1.036409e+00	1.040628e+00	1.041911e+00	1.039823e+00	1.030808e+00	1.016515e+00	1.004786e+00	9.989419e-01	9.968496e-01	9.962280e-01	9.960522e-01	9.959887e-01	9.959345e-01	9.958458e-01	9.957074e-01	9.955185e-01	9.952898e-01	9.950284e-01	9.947312e-01	9.943898e-01	9.939931e-01	9.935368e-01	9.929920e-01	9.922587e-01	9.911230e-01	9.892931e-01	9.866345e-01	9.834401e-01	9.803818e-01	9.780558e-01	9.767678e-01	9.764929e-01	9.773438e-01	9.801287e-01	9.848534e-01	9.916001e-01	1.000528e+00	1.011210e+00	1.022304e+00	1.032124e+00	1.039468e+00	1.043998e+00	1.045554e+00	1.043857e+00	1.035376e+00	1.020911e+00	1.008645e+00	1.002653e+00	1.000673e+00	1.000156e+00	1.000035e+00	1.000008e+00	1.000002e+00	1.000001e+00	1.000000e+00	1.000000e+00	1.000000e+00	1.000000e+00	1.000000e+00	1.000000e+00	1.000000e+00	1.000000e+00	1.000000e+00	1.000000e+00	1.000000e+00	1.000000e+00	1.000000e+00	1.000000e+00	1.000000e+00	1.000000e+00	1.000000e+00	1.000000e+00	1.000000e+00	1.000000e+00	1.000000e+00	1.000000e+00	1.000000e+00	1.000000e+00	9.898242e-01	9.896871e-01	9.896714e-01	9.894467e-01	9.891473e-01	9.886890e-01	9.879260e-01	9.866631e-01	9.846951e-01	9.820628e-01	9.790894e-01	9.763120e-01	9.743966e-01	9.737118e-01	9.737886e-01	9.749466e-01	9.781468e-01	9.833467e-01	9.904019e-01	9.993659e-01	1.009758e+00	1.020416e+00	1.029992e+00	1.037297e+00	1.040962e+00	1.041517e+00	1.039512e+00	1.030898e+00	1.016434e+00	1.004105e+00	9.983660e-01	9.965957e-01	9.961326e-01	9.960054e-01	9.959513e-01	9.958954e-01	9.958035e-01	9.956608e-01	9.954659e-01	9.952298e-01	9.949600e-01	9.946544e-01	9.943053e-01	9.939036e-01	9.934316e-01	9.928516e-01	9.920473e-01	9.908192e-01	9.889118e-01	9.862231e-01	9.830214e-01	9.799438e-01	9.777351e-01	9.768098e-01	9.767029e-01	9.775692e-01	9.804076e-01	9.853073e-01	9.921604e-01	1.001089e+00	1.011689e+00	1.022750e+00	1.032740e+00	1.040412e+00	1.044497e+00	1.045197e+00	1.043556e+00	1.035454e+00	1.020961e+00	1.008068e+00	1.002103e+00	1.000431e+00	1.000082e+00	1.000017e+00	1.000004e+00	1.000001e+00	1.000000e+00	1.000000e+00	1.000000e+00	1.000000e+00	1.000000e+00	1.000000e+00	1.000000e+00	1.000000e+00	1.000000e+00	1.000000e+00	1.000000e+00	1.000000e+00	1.000000e+00	1.000000e+00	1.000000e+00	1.000000e+00	1.000000e+00	1.000000e+00	1.000000e+00	1.000000e+00	1.000000e+00	1.000000e+00	1.000000e+00	1.000000e+00	1.000000e+00	9.897937e-01	9.896714e-01	9.896583e-01	9.894188e-01	9.890671e-01	9.885046e-01	9.875907e-01	9.861928e-01	9.842425e-01	9.818232e-01	9.791836e-01	9.768228e-01	9.753454e-01	9.747635e-01	9.748507e-01	9.759131e-01	9.789818e-01	9.842481e-01	9.912417e-01	9.997177e-01	1.009446e+00	1.019758e+00	1.029397e+00	1.036338e+00	1.039216e+00	1.039524e+00	1.037539e+00	1.029832e+00	1.017195e+00	1.005784e+00	9.993836e-01	9.969394e-01	9.962170e-01	9.960177e-01	9.959388e-01	9.958728e-01	9.957791e-01	9.956383e-01	9.954501e-01	9.952173e-01	9.949473e-01	9.946409e-01	9.942922e-01	9.938887e-01	9.933890e-01	9.927182e-01	9.917576e-01	9.903440e-01	9.883645e-01	9.858406e-01	9.830355e-01	9.804753e-01	9.787263e-01	9.778972e-01	9.778058e-01	9.785612e-01	9.812525e-01	9.862375e-01	9.930829e-01	1.001552e+00	1.011434e+00	1.022047e+00	1.032110e+00	1.039552e+00	1.042758e+00	1.043193e+00	1.041495e+00	1.034291e+00	1.021760e+00	1.009860e+00	1.003088e+00	1.000693e+00	1.000125e+00	1.000021e+00	1.000004e+00	1.000001e+00	1.000000e+00	1.000000e+00	1.000000e+00	1.000000e+00	1.000000e+00	1.000000e+00	1.000000e+00	1.000000e+00	1.000000e+00	1.000000e+00	1.000000e+00	1.000000e+00	1.000000e+00	1.000000e+00	1.000000e+00	1.000000e+00	1.000000e+00	1.000000e+00	1.000000e+00	1.000000e+00	1.000000e+00	1.000000e+00	1.000000e+00	1.000000e+00	1.000000e+00	9.895760e-01	9.894467e-01	9.894188e-01	9.891486e-01	9.886974e-01	9.879437e-01	9.868032e-01	9.852024e-01	9.832201e-01	9.810146e-01	9.789156e-01	9.772833e-01	9.762275e-01	9.759403e-01	9.761980e-01	9.775212e-01	9.807708e-01	9.860258e-01	9.929115e-01	1.000957e+00	1.010059e+00	1.019962e+00	1.029247e+00	1.035211e+00	1.037243e+00	1.037180e+00	1.034666e+00	1.027403e+00	1.016972e+00	1.007332e+00	1.000781e+00	9.975287e-01	9.963584e-01	9.960087e-01	9.958794e-01	9.957907e-01	9.956854e-01	9.955393e-01	9.953473e-01	9.951108e-01	9.948344e-01	9.945184e-01	9.941576e-01	9.937184e-01	9.931435e-01	9.923047e-01	9.910845e-01	9.893868e-01	9.872529e-01	9.849164e-01	9.827212e-01	9.809446e-01	9.796330e-01	9.791190e-01	9.792018e-01	9.801898e-01	9.830567e-01	9.880680e-01	9.948852e-01	1.002968e+00	1.012171e+00	1.022307e+00	1.032037e+00	1.038503e+00	1.040866e+00	1.040911e+00	1.038666e+00	1.031765e+00	1.021447e+00	1.011555e+00	1.004636e+00	1.001284e+00	1.000251e+00	1.000040e+00	1.000007e+00	1.000001e+00	1.000000e+00	1.000000e+00	1.000000e+00	1.000000e+00	1.000000e+00	1.000000e+00	1.000000e+00	1.000000e+00	1.000000e+00	1.000000e+00	1.000000e+00	1.000000e+00	1.000000e+00	1.000000e+00	1.000000e+00	1.000000e+00	1.000000e+00	1.000000e+00	1.000000e+00	1.000000e+00	1.000000e+00	1.000000e+00	1.000000e+00	1.000000e+00	1.000000e+00	9.892945e-01	9.891473e-01	9.890671e-01	9.886974e-01	9.880698e-01	9.870692e-01	9.856518e-01	9.839104e-01	9.820255e-01	9.802834e-01	9.789417e-01	9.780038e-01	9.774613e-01	9.775098e-01	9.779620e-01	9.796466e-01	9.831979e-01	9.884808e-01	9.950373e-01	1.002552e+00	1.010995e+00	1.020125e+00	1.028343e+00	1.033331e+00	1.034464e+00	1.034119e+00	1.031130e+00	1.024492e+00	1.016510e+00	1.009019e+00	1.002684e+00	9.985029e-01	9.966294e-01	9.960118e-01	9.957986e-01	9.956774e-01	9.955571e-01	9.954064e-01	9.952113e-01	9.949700e-01	9.946855e-01	9.943538e-01	9.939555e-01	9.934346e-01	9.926893e-01	9.915918e-01	9.900145e-01	9.880291e-01	9.859606e-01	9.841706e-01	9.827811e-01	9.816505e-01	9.808842e-01	9.807493e-01	9.809916e-01	9.823012e-01	9.855271e-01	9.906746e-01	9.972319e-01	1.004792e+00	1.013284e+00	1.022592e+00	1.031236e+00	1.036696e+00	1.038167e+00	1.037918e+00	1.035201e+00	1.028785e+00	1.020856e+00	1.013317e+00	1.006745e+00	1.002335e+00	1.000525e+00	1.000086e+00	1.000013e+00	1.000002e+00	1.000001e+00	1.000000e+00	1.000000e+00	1.000000e+00	1.000000e+00	1.000000e+00	1.000000e+00	1.000000e+00	1.000000e+00	1.000000e+00	1.000000e+00	1.000000e+00	1.000000e+00	1.000000e+00	1.000000e+00	1.000000e+00	1.000000e+00	1.000000e+00	1.000000e+00	1.000000e+00	1.000000e+00	1.000000e+00	1.000000e+00	1.000000e+00	1.000000e+00	9.888814e-01	9.886890e-01	9.885046e-01	9.879437e-01	9.870692e-01	9.858191e-01	9.842072e-01	9.824573e-01	9.808909e-01	9.798523e-01	9.792899e-01	9.789261e-01	9.790283e-01	9.793334e-01	9.802335e-01	9.824290e-01	9.862429e-01	9.914194e-01	9.975791e-01	1.004545e+00	1.012176e+00	1.020074e+00	1.026884e+00	1.030506e+00	1.031067e+00	1.030361e+00	1.027064e+00	1.021540e+00	1.015970e+00	1.010560e+00	1.004803e+00	9.998173e-01	9.970570e-01	9.960427e-01	9.957023e-01	9.955358e-01	9.953953e-01	9.952338e-01	9.950321e-01	9.947805e-01	9.944735e-01	9.941012e-01	9.936109e-01	9.929257e-01	9.918990e-01	9.904072e-01	9.884916e-01	9.865072e-01	9.849084e-01	9.838586e-01	9.831370e-01	9.825447e-01	9.824710e-01	9.826260e-01	9.832278e-01	9.850586e-01	9.886472e-01	9.938122e-01	1.000041e+00	1.007043e+00	1.014707e+00	1.022715e+00	1.029806e+00	1.034023e+00	1.034835e+00	1.034266e+00	1.031218e+00	1.025741e+00	1.020185e+00	1.014884e+00	1.009069e+00	1.003818e+00	1.001003e+00	1.000178e+00	1.000026e+00	1.000004e+00	1.000001e+00	1.000000e+00	1.000000e+00	1.000000e+00	1.000000e+00	1.000000e+00	1.000000e+00	1.000000e+00	1.000000e+00	1.000000e+00	1.000000e+00	1.000000e+00	1.000000e+00	1.000000e+00	1.000000e+00	1.000000e+00	1.000000e+00	1.000000e+00	1.000000e+00	1.000000e+00	1.000000e+00	1.000000e+00	1.000000e+00	1.000000e+00	1.000000e+00	9.881909e-01	9.879260e-01	9.875907e-01	9.868032e-01	9.856518e-01	9.842072e-01	9.825900e-01	9.810844e-01	9.801806e-01	9.799326e-01	9.799149e-01	9.801867e-01	9.807207e-01	9.815585e-01	9.831015e-01	9.858146e-01	9.897844e-01	9.947503e-01	1.000436e+00	1.006720e+00	1.013312e+00	1.019520e+00	1.024556e+00	1.026806e+00	1.026970e+00	1.026007e+00	1.022908e+00	1.018949e+00	1.015524e+00	1.011867e+00	1.006859e+00	1.001344e+00	9.976393e-01	9.961084e-01	9.955901e-01	9.953622e-01	9.951935e-01	9.950129e-01	9.947900e-01	9.945124e-01	9.941548e-01	9.936805e-01	9.930209e-01	9.920365e-01	9.906060e-01	9.887532e-01	9.868306e-01	9.853324e-01	9.844663e-01	9.839939e-01	9.837125e-01	9.838303e-01	9.841907e-01	9.848040e-01	9.860361e-01	9.884708e-01	9.923607e-01	9.974164e-01	1.003208e+00	1.009530e+00	1.016095e+00	1.022346e+00	1.027657e+00	1.030449e+00	1.030831e+00	1.030015e+00	1.027086e+00	1.023094e+00	1.019695e+00	1.016203e+00	1.011310e+00	1.005589e+00	1.001716e+00	1.000340e+00	1.000052e+00	1.000008e+00	1.000001e+00	1.000000e+00	1.000000e+00	1.000000e+00	1.000000e+00	1.000000e+00	1.000000e+00	1.000000e+00	1.000000e+00	1.000000e+00	1.000000e+00	1.000000e+00	1.000000e+00	1.000000e+00	1.000000e+00	1.000000e+00	1.000000e+00	1.000000e+00	1.000000e+00	1.000000e+00	1.000000e+00	1.000000e+00	1.000000e+00	1.000000e+00	1.000000e+00	9.870058e-01	9.866631e-01	9.861928e-01	9.852024e-01	9.839104e-01	9.824573e-01	9.810844e-01	9.802432e-01	9.801691e-01	9.803460e-01	9.808092e-01	9.816918e-01	9.828128e-01	9.843133e-01	9.865429e-01	9.897069e-01	9.937124e-01	9.983481e-01	1.003444e+00	1.008764e+00	1.013943e+00	1.018401e+00	1.021213e+00	1.022235e+00	1.022176e+00	1.021290e+00	1.019154e+00	1.016973e+00	1.015240e+00	1.012881e+00	1.008660e+00	1.002913e+00	9.983539e-01	9.962175e-01	9.954623e-01	9.951499e-01	9.949394e-01	9.947237e-01	9.944557e-01	9.941062e-01	9.936394e-01	9.929743e-01	9.919974e-01	9.905996e-01	9.888156e-01	9.869858e-01	9.856020e-01	9.848572e-01	9.845244e-01	9.844073e-01	9.846489e-01	9.853138e-01	9.862483e-01	9.874993e-01	9.894604e-01	9.924893e-01	9.965649e-01	1.001381e+00	1.006604e+00	1.011914e+00	1.017016e+00	1.021415e+00	1.024592e+00	1.025996e+00	1.026118e+00	1.025380e+00	1.023361e+00	1.021114e+00	1.019408e+00	1.017259e+00	1.013278e+00	1.007453e+00	1.002647e+00	1.000593e+00	1.000098e+00	1.000015e+00	1.000002e+00	1.000001e+00	1.000000e+00	1.000000e+00	1.000000e+00	1.000000e+00	1.000000e+00	1.000000e+00	1.000000e+00	1.000000e+00	1.000000e+00	1.000000e+00	1.000000e+00	1.000000e+00	1.000000e+00	1.000000e+00	1.000000e+00	1.000000e+00	1.000000e+00	1.000000e+00	1.000000e+00	1.000000e+00	1.000000e+00	1.000000e+00	1.000000e+00	9.851005e-01	9.846951e-01	9.842425e-01	9.832201e-01	9.820255e-01	9.808909e-01	9.801806e-01	9.801691e-01	9.804438e-01	9.810189e-01	9.821240e-01	9.835957e-01	9.853796e-01	9.876292e-01	9.904916e-01	9.939570e-01	9.978674e-01	1.002022e+00	1.006317e+00	1.010400e+00	1.013719e+00	1.016185e+00	1.016910e+00	1.016906e+00	1.016916e+00	1.016715e+00	1.016230e+00	1.015688e+00	1.015073e+00	1.013641e+00	1.010088e+00	1.004368e+00	9.991386e-01	9.963639e-01	9.953078e-01	9.948727e-01	9.945918e-01	9.943048e-01	9.939475e-01	9.934596e-01	9.927681e-01	9.917777e-01	9.903997e-01	9.886997e-01	9.870217e-01	9.858116e-01	9.851886e-01	9.849243e-01	9.848620e-01	9.851272e-01	9.859261e-01	9.871891e-01	9.887650e-01	9.907851e-01	9.935007e-01	9.970140e-01	1.001137e+00	1.005526e+00	1.009921e+00	1.013887e+00	1.017017e+00	1.019600e+00	1.020612e+00	1.020780e+00	1.020828e+00	1.020831e+00	1.020416e+00	1.019887e+00	1.019345e+00	1.018105e+00	1.014875e+00	1.009233e+00	1.003743e+00	1.000955e+00	1.000172e+00	1.000026e+00	1.000004e+00	1.000001e+00	1.000000e+00	1.000000e+00	1.000000e+00	1.000000e+00	1.000000e+00	1.000000e+00	1.000000e+00	1.000000e+00	1.000000e+00	1.000000e+00	1.000000e+00	1.000000e+00	1.000000e+00	1.000000e+00	1.000000e+00	1.000000e+00	1.000000e+00	1.000000e+00	1.000000e+00	1.000000e+00	1.000000e+00	1.000000e+00	1.000000e+00	9.824793e-01	9.820628e-01	9.818232e-01	9.810146e-01	9.802834e-01	9.798523e-01	9.799326e-01	9.803460e-01	9.810189e-01	9.822265e-01	9.839136e-01	9.860037e-01	9.885215e-01	9.914853e-01	9.948319e-01	9.984173e-01	1.002073e+00	1.005610e+00	1.008657e+00	1.010959e+00	1.012618e+00	1.012492e+00	1.011800e+00	1.011290e+00	1.011405e+00	1.012836e+00	1.014492e+00	1.014934e+00	1.014951e+00	1.014122e+00	1.011108e+00	1.005584e+00	9.999011e-01	9.965133e-01	9.950943e-01	9.944797e-01	9.940731e-01	9.936605e-01	9.931233e-01	9.923818e-01	9.913553e-01	9.900024e-01	9.884311e-01	9.869832e-01	9.859811e-01	9.854900e-01	9.852648e-01	9.852396e-01	9.855010e-01	9.862980e-01	9.877090e-01	9.895917e-01	9.919099e-01	9.947464e-01	9.981315e-01	1.001944e+00	1.005916e+00	1.009647e+00	1.012649e+00	1.014778e+00	1.016276e+00	1.016337e+00	1.015784e+00	1.015271e+00	1.015307e+00	1.016782e+00	1.018728e+00	1.019343e+00	1.019342e+00	1.018676e+00	1.016075e+00	1.010811e+00	1.004930e+00	1.001429e+00	1.000284e+00	1.000045e+00	1.000007e+00	1.000001e+00	1.000000e+00	1.000000e+00	1.000000e+00	1.000000e+00	1.000000e+00	1.000000e+00	1.000000e+00	1.000000e+00	1.000000e+00	1.000000e+00	1.000000e+00	1.000000e+00	1.000000e+00	1.000000e+00	1.000000e+00	1.000000e+00	1.000000e+00	1.000000e+00	1.000000e+00	1.000000e+00	1.000000e+00	1.000000e+00	1.000000e+00	9.795032e-01	9.790894e-01	9.791836e-01	9.789156e-01	9.789417e-01	9.792899e-01	9.799149e-01	9.808092e-01	9.821240e-01	9.839136e-01	9.861949e-01	9.889808e-01	9.922171e-01	9.957513e-01	9.994187e-01	1.003017e+00	1.006182e+00	1.008474e+00	1.009731e+00	1.010383e+00	1.009847e+00	1.007839e+00	1.006083e+00	1.005569e+00	1.006554e+00	1.009982e+00	1.013339e+00	1.014471e+00	1.014653e+00	1.014108e+00	1.011578e+00	1.006422e+00	1.000537e+00	9.965802e-01	9.947347e-01	9.938668e-01	9.932617e-01	9.926211e-01	9.918017e-01	9.907345e-01	9.894374e-01	9.880623e-01	9.869082e-01	9.861467e-01	9.857725e-01	9.855736e-01	9.855808e-01	9.858480e-01	9.866312e-01	9.880681e-01	9.900943e-01	9.926596e-01	9.957817e-01	9.993972e-01	1.003304e+00	1.007192e+00	1.010606e+00	1.012999e+00	1.014118e+00	1.014464e+00	1.014053e+00	1.012140e+00	1.010249e+00	1.009623e+00	1.010394e+00	1.013913e+00	1.017822e+00	1.019204e+00	1.019420e+00	1.019044e+00	1.016909e+00	1.012133e+00	1.006130e+00	1.002002e+00	1.000438e+00	1.000074e+00	1.000011e+00	1.000002e+00	1.000000e+00	1.000000e+00	1.000000e+00	1.000000e+00	1.000000e+00	1.000000e+00	1.000000e+00	1.000000e+00	1.000000e+00	1.000000e+00	1.000000e+00	1.000000e+00	1.000000e+00	1.000000e+00	1.000000e+00	1.000000e+00	1.000000e+00	1.000000e+00	1.000000e+00	1.000000e+00	1.000000e+00	1.000000e+00	1.000000e+00	9.767549e-01	9.763120e-01	9.768228e-01	9.772833e-01	9.780038e-01	9.789261e-01	9.801867e-01	9.816918e-01	9.835957e-01	9.860037e-01	9.889808e-01	9.924785e-01	9.963204e-01	1.000312e+00	1.004211e+00	1.007398e+00	1.009200e+00	1.009705e+00	1.009699e+00	1.008580e+00	1.005438e+00	1.001996e+00	1.000436e+00	1.000326e+00	1.002753e+00	1.008141e+00	1.012475e+00	1.013966e+00	1.014203e+00	1.013829e+00	1.011665e+00	1.006903e+00	1.000927e+00	9.964172e-01	9.940780e-01	9.928708e-01	9.919746e-01	9.910395e-01	9.899534e-01	9.887712e-01	9.876692e-01	9.868383e-01	9.863225e-01	9.860484e-01	9.858730e-01	9.859097e-01	9.862056e-01	9.870079e-01	9.884590e-01	9.905354e-01	9.932055e-01	9.965202e-01	1.000451e+00	1.004738e+00	1.008891e+00	1.012232e+00	1.014183e+00	1.014680e+00	1.014395e+00	1.013270e+00	1.010326e+00	1.006644e+00	1.004733e+00	1.004414e+00	1.006621e+00	1.012346e+00	1.017352e+00	1.019191e+00	1.019477e+00	1.019239e+00	1.017483e+00	1.013203e+00	1.007281e+00	1.002647e+00	1.000636e+00	1.000114e+00	1.000018e+00	1.000003e+00	1.000001e+00	1.000000e+00	1.000000e+00	1.000000e+00	1.000000e+00	1.000000e+00	1.000000e+00	1.000000e+00	1.000000e+00	1.000000e+00	1.000000e+00	1.000000e+00	1.000000e+00	1.000000e+00	1.000000e+00	1.000000e+00	1.000000e+00	1.000000e+00	1.000000e+00	1.000000e+00	1.000000e+00	1.000000e+00	1.000000e+00	9.747330e-01	9.743966e-01	9.753454e-01	9.762275e-01	9.774613e-01	9.790283e-01	9.807207e-01	9.828128e-01	9.853796e-01	9.885215e-01	9.922171e-01	9.963204e-01	1.000679e+00	1.005058e+00	1.008529e+00	1.010131e+00	1.010461e+00	1.009993e+00	1.008405e+00	1.004397e+00	9.993584e-01	9.961972e-01	9.953275e-01	9.960036e-01	1.000189e+00	1.006839e+00	1.011618e+00	1.013260e+00	1.013512e+00	1.013236e+00	1.011370e+00	1.006952e+00	1.000863e+00	9.958249e-01	9.929545e-01	9.913718e-01	9.902086e-01	9.891328e-01	9.881379e-01	9.873525e-01	9.868215e-01	9.865149e-01	9.863061e-01	9.861727e-01	9.862496e-01	9.866040e-01	9.874636e-01	9.889559e-01	9.910743e-01	9.937915e-01	9.971735e-01	1.001286e+00	1.005957e+00	1.010568e+00	1.014097e+00	1.015834e+00	1.016123e+00	1.015342e+00	1.013654e+00	1.010082e+00	1.004916e+00	1.001038e+00	9.998059e-01	1.000273e+00	1.004479e+00	1.011646e+00	1.017083e+00	1.019133e+00	1.019463e+00	1.019303e+00	1.017851e+00	1.014059e+00	1.008339e+00	1.003326e+00	1.000872e+00	1.000165e+00	1.000027e+00	1.000004e+00	1.000001e+00	1.000000e+00	1.000000e+00	1.000000e+00	1.000000e+00	1.000000e+00	1.000000e+00	1.000000e+00	1.000000e+00	1.000000e+00	1.000000e+00	1.000000e+00	1.000000e+00	1.000000e+00	1.000000e+00	1.000000e+00	1.000000e+00	1.000000e+00	1.000000e+00	1.000000e+00	1.000000e+00	1.000000e+00	1.000000e+00	9.736818e-01	9.737118e-01	9.747635e-01	9.759403e-01	9.775098e-01	9.793334e-01	9.815585e-01	9.843133e-01	9.876292e-01	9.914853e-01	9.957513e-01	1.000312e+00	1.005058e+00	1.008997e+00	1.010806e+00	1.011191e+00	1.010746e+00	1.009029e+00	1.004321e+00	9.978438e-01	9.930213e-01	9.911828e-01	9.909757e-01	9.928886e-01	9.984821e-01	1.005590e+00	1.010509e+00	1.012213e+00	1.012457e+00	1.012195e+00	1.010508e+00	1.006304e+00	1.000166e+00	9.947026e-01	9.914131e-01	9.896381e-01	9.885203e-01	9.877288e-01	9.871909e-01	9.868820e-01	9.866952e-01	9.865394e-01	9.864837e-01	9.866242e-01	9.870785e-01	9.880392e-01	9.896053e-01	9.917811e-01	9.945433e-01	9.979542e-01	1.002125e+00	1.006991e+00	1.011976e+00	1.015836e+00	1.017649e+00	1.017912e+00	1.016978e+00	1.014880e+00	1.010846e+00	1.004639e+00	9.989413e-01	9.963572e-01	9.959071e-01	9.978234e-01	1.003778e+00	1.011231e+00	1.016745e+00	1.018991e+00	1.019381e+00	1.019284e+00	1.018097e+00	1.014740e+00	1.009272e+00	1.004001e+00	1.001134e+00	1.000227e+00	1.000037e+00	1.000006e+00	1.000001e+00	1.000000e+00	1.000000e+00	1.000000e+00	1.000000e+00	1.000000e+00	1.000000e+00	1.000000e+00	1.000000e+00	1.000000e+00	1.000000e+00	1.000000e+00	1.000000e+00	1.000000e+00	1.000000e+00	1.000000e+00	1.000000e+00	1.000000e+00	1.000000e+00	1.000000e+00	1.000000e+00	1.000000e+00	1.000000e+00	9.736131e-01	9.737886e-01	9.748507e-01	9.761980e-01	9.779620e-01	9.802335e-01	9.831015e-01	9.865429e-01	9.904916e-01	9.948319e-01	9.994187e-01	1.004211e+00	1.008529e+00	1.010806e+00	1.011438e+00	1.011363e+00	1.009805e+00	1.004716e+00	9.969923e-01	9.906847e-01	9.877276e-01	9.870357e-01	9.875261e-01	9.908123e-01	9.970451e-01	1.003989e+00	1.008926e+00	1.010715e+00	1.010899e+00	1.010598e+00	1.008964e+00	1.005006e+00	9.990411e-01	9.934677e-01	9.901150e-01	9.885129e-01	9.877105e-01	9.872706e-01	9.870136e-01	9.868516e-01	9.867601e-01	9.868151e-01	9.870609e-01	9.876797e-01	9.887788e-01	9.904500e-01	9.927052e-01	9.955273e-01	9.989755e-01	1.003167e+00	1.008086e+00	1.013210e+00	1.017288e+00	1.019276e+00	1.019593e+00	1.018811e+00	1.016651e+00	1.012301e+00	1.005263e+00	9.981120e-01	9.941274e-01	9.930416e-01	9.934949e-01	9.970801e-01	1.003578e+00	1.010777e+00	1.016256e+00	1.018772e+00	1.019272e+00	1.019229e+00	1.018259e+00	1.015277e+00	1.010068e+00	1.004637e+00	1.001407e+00	1.000297e+00	1.000050e+00	1.000008e+00	1.000001e+00	1.000000e+00	1.000000e+00	1.000000e+00	1.000000e+00	1.000000e+00	1.000000e+00	1.000000e+00	1.000000e+00	1.000000e+00	1.000000e+00	1.000000e+00	1.000000e+00	1.000000e+00	1.000000e+00	1.000000e+00	1.000000e+00	1.000000e+00	1.000000e+00	1.000000e+00	1.000000e+00	1.000000e+00	1.000000e+00	9.747684e-01	9.749466e-01	9.759131e-01	9.775212e-01	9.796466e-01	9.824290e-01	9.858146e-01	9.897069e-01	9.939570e-01	9.984173e-01	1.003017e+00	1.007398e+00	1.010131e+00	1.011191e+00	1.011363e+00	1.010144e+00	1.005060e+00	9.963900e-01	9.887513