# vtk DataFile Version 3.0
vtk output
ASCII
DATASET STRUCTURED_GRID
DIMENSIONS 101 101 1
POINTS 10201 double
0.000000e+00	0.000000e+00	0.0	1.000000e-02	0.000000e+00	0.0	2.000000e-02	0.000000e+00	0.0	3.000000e-02	0.000000e+00	0.0	4.000000e-02	0.000000e+00	0.0	5.000000e-02	0.000000e+00	0.0	6.000000e-02	0.000000e+00	0.0	7.000000e-02	0.000000e+00	0.0	8.000000e-02	0.000000e+00	0.0	9.000000e-02	0.000000e+00	0.0	1.000000e-01	0.000000e+00	0.0	1.100000e-01	0.000000e+00	0.0	1.200000e-01	0.000000e+00	0.0	1.300000e-01	0.000000e+00	0.0	1.400000e-01	0.000000e+00	0.0	1.500000e-01	0.000000e+00	0.0	1.600000e-01	0.000000e+00	0.0	1.700000e-01	0.000000e+00	0.0	1.800000e-01	0.000000e+00	0.0	1.900000e-01	0.000000e+00	0.0	2.000000e-01	0.000000e+00	0.0	2.100000e-01	0.000000e+00	0.0	2.200000e-01	0.000000e+00	0.0	2.300000e-01	0.000000e+00	0.0	2.400000e-01	0.000000e+00	0.0	2.500000e-01	0.000000e+00	0.0	2.600000e-01	0.000000e+00	0.0	2.700000e-01	0.000000e+00	0.0	2.800000e-01	0.000000e+00	0.0	2.900000e-01	0.000000e+00	0.0	3.000000e-01	0.000000e+00	0.0	3.100000e-01	0.000000e+00	0.0	3.200000e-01	0.000000e+00	0.0	3.300000e-01	0.000000e+00	0.0	3.400000e-01	0.000000e+00	0.0	3.500000e-01	0.000000e+00	0.0	3.600000e-01	0.000000e+00	0.0	3.700000e-01	0.000000e+00	0.0	3.800000e-01	0.000000e+00	0.0	3.900000e-01	0.000000e+00	0.0	4.000000e-01	0.000000e+00	0.0	4.100000e-01	0.000000e+00	0.0	4.200000e-01	0.000000e+00	0.0	4.300000e-01	0.000000e+00	0.0	4.400000e-01	0.000000e+00	0.0	4.500000e-01	0.000000e+00	0.0	4.600000e-01	0.000000e+00	0.0	4.700000e-01	0.000000e+00	0.0	4.800000e-01	0.000000e+00	0.0	4.900000e-01	0.000000e+00	0.0	5.000000e-01	0.000000e+00	0.0	5.100000e-01	0.000000e+00	0.0	5.200000e-01	0.000000e+00	0.0	5.300000e-01	0.000000e+00	0.0	5.400000e-01	0.000000e+00	0.0	5.500000e-01	0.000000e+00	0.0	5.600000e-01	0.000000e+00	0.0	5.700000e-01	0.000000e+00	0.0	5.800000e-01	0.000000e+00	0.0	5.900000e-01	0.000000e+00	0.0	6.000000e-01	0.000000e+00	0.0	6.100000e-01	0.000000e+00	0.0	6.200000e-01	0.000000e+00	0.0	6.300000e-01	0.000000e+00	0.0	6.400000e-01	0.000000e+00	0.0	6.500000e-01	0.000000e+00	0.0	6.600000e-01	0.000000e+00	0.0	6.700000e-01	0.000000e+00	0.0	6.800000e-01	0.000000e+00	0.0	6.900000e-01	0.000000e+00	0.0	7.000000e-01	0.000000e+00	0.0	7.100000e-01	0.000000e+00	0.0	7.200000e-01	0.000000e+00	0.0	7.300000e-01	0.000000e+00	0.0	7.400000e-01	0.000000e+00	0.0	7.500000e-01	0.000000e+00	0.0	7.600000e-01	0.000000e+00	0.0	7.700000e-01	0.000000e+00	0.0	7.800000e-01	0.000000e+00	0.0	7.900000e-01	0.000000e+00	0.0	8.000000e-01	0.000000e+00	0.0	8.100000e-01	0.000000e+00	0.0	8.200000e-01	0.000000e+00	0.0	8.300000e-01	0.000000e+00	0.0	8.400000e-01	0.000000e+00	0.0	8.500000e-01	0.000000e+00	0.0	8.600000e-01	0.000000e+00	0.0	8.700000e-01	0.000000e+00	0.0	8.800000e-01	0.000000e+00	0.0	8.900000e-01	0.000000e+00	0.0	9.000000e-01	0.000000e+00	0.0	9.100000e-01	0.000000e+00	0.0	9.200000e-01	0.000000e+00	0.0	9.300000e-01	0.000000e+00	0.0	9.400000e-01	0.000000e+00	0.0	9.500000e-01	0.000000e+00	0.0	9.600000e-01	0.000000e+00	0.0	9.700000e-01	0.000000e+00	0.0	9.800000e-01	0.000000e+00	0.0	9.900000e-01	0.000000e+00	0.0	1.000000e+00	0.000000e+00	0.0	0.000000e+00	1.000000e-02	0.0	1.000000e-02	1.000000e-02	0.0	2.000000e-02	1.000000e-02	0.0	3.000000e-02	1.000000e-02	0.0	4.000000e-02	1.000000e-02	0.0	5.000000e-02	1.000000e-02	0.0	6.000000e-02	1.000000e-02	0.0	7.000000e-02	1.000000e-02	0.0	8.000000e-02	1.000000e-02	0.0	9.000000e-02	1.000000e-02	0.0	1.000000e-01	1.000000e-02	0.0	1.100000e-01	1.000000e-02	0.0	1.200000e-01	1.000000e-02	0.0	1.300000e-01	1.000000e-02	0.0	1.400000e-01	1.000000e-02	0.0	1.500000e-01	1.000000e-02	0.0	1.600000e-01	1.000000e-02	0.0	1.700000e-01	1.000000e-02	0.0	1.800000e-01	1.000000e-02	0.0	1.900000e-01	1.000000e-02	0.0	2.000000e-01	1.000000e-02	0.0	2.100000e-01	1.000000e-02	0.0	2.200000e-01	1.000000e-02	0.0	2.300000e-01	1.000000e-02	0.0	2.400000e-01	1.000000e-02	0.0	2.500000e-01	1.000000e-02	0.0	2.600000e-01	1.000000e-02	0.0	2.700000e-01	1.000000e-02	0.0	2.800000e-01	1.000000e-02	0.0	2.900000e-01	1.000000e-02	0.0	3.000000e-01	1.000000e-02	0.0	3.100000e-01	1.000000e-02	0.0	3.200000e-01	1.000000e-02	0.0	3.300000e-01	1.000000e-02	0.0	3.400000e-01	1.000000e-02	0.0	3.500000e-01	1.000000e-02	0.0	3.600000e-01	1.000000e-02	0.0	3.700000e-01	1.000000e-02	0.0	3.800000e-01	1.000000e-02	0.0	3.900000e-01	1.000000e-02	0.0	4.000000e-01	1.000000e-02	0.0	4.100000e-01	1.000000e-02	0.0	4.200000e-01	1.000000e-02	0.0	4.300000e-01	1.000000e-02	0.0	4.400000e-01	1.000000e-02	0.0	4.500000e-01	1.000000e-02	0.0	4.600000e-01	1.000000e-02	0.0	4.700000e-01	1.000000e-02	0.0	4.800000e-01	1.000000e-02	0.0	4.900000e-01	1.000000e-02	0.0	5.000000e-01	1.000000e-02	0.0	5.100000e-01	1.000000e-02	0.0	5.200000e-01	1.000000e-02	0.0	5.300000e-01	1.000000e-02	0.0	5.400000e-01	1.000000e-02	0.0	5.500000e-01	1.000000e-02	0.0	5.600000e-01	1.000000e-02	0.0	5.700000e-01	1.000000e-02	0.0	5.800000e-01	1.000000e-02	0.0	5.900000e-01	1.000000e-02	0.0	6.000000e-01	1.000000e-02	0.0	6.100000e-01	1.000000e-02	0.0	6.200000e-01	1.000000e-02	0.0	6.300000e-01	1.000000e-02	0.0	6.400000e-01	1.000000e-02	0.0	6.500000e-01	1.000000e-02	0.0	6.600000e-01	1.000000e-02	0.0	6.700000e-01	1.000000e-02	0.0	6.800000e-01	1.000000e-02	0.0	6.900000e-01	1.000000e-02	0.0	7.000000e-01	1.000000e-02	0.0	7.100000e-01	1.000000e-02	0.0	7.200000e-01	1.000000e-02	0.0	7.300000e-01	1.000000e-02	0.0	7.400000e-01	1.000000e-02	0.0	7.500000e-01	1.000000e-02	0.0	7.600000e-01	1.000000e-02	0.0	7.700000e-01	1.000000e-02	0.0	7.800000e-01	1.000000e-02	0.0	7.900000e-01	1.000000e-02	0.0	8.000000e-01	1.000000e-02	0.0	8.100000e-01	1.000000e-02	0.0	8.200000e-01	1.000000e-02	0.0	8.300000e-01	1.000000e-02	0.0	8.400000e-01	1.000000e-02	0.0	8.500000e-01	1.000000e-02	0.0	8.600000e-01	1.000000e-02	0.0	8.700000e-01	1.000000e-02	0.0	8.800000e-01	1.000000e-02	0.0	8.900000e-01	1.000000e-02	0.0	9.000000e-01	1.000000e-02	0.0	9.100000e-01	1.000000e-02	0.0	9.200000e-01	1.000000e-02	0.0	9.300000e-01	1.000000e-02	0.0	9.400000e-01	1.000000e-02	0.0	9.500000e-01	1.000000e-02	0.0	9.600000e-01	1.000000e-02	0.0	9.700000e-01	1.000000e-02	0.0	9.800000e-01	1.000000e-02	0.0	9.900000e-01	1.000000e-02	0.0	1.000000e+00	1.000000e-02	0.0	0.000000e+00	2.000000e-02	0.0	1.000000e-02	2.000000e-02	0.0	2.000000e-02	2.000000e-02	0.0	3.000000e-02	2.000000e-02	0.0	4.000000e-02	2.000000e-02	0.0	5.000000e-02	2.000000e-02	0.0	6.000000e-02	2.000000e-02	0.0	7.000000e-02	2.000000e-02	0.0	8.000000e-02	2.000000e-02	0.0	9.000000e-02	2.000000e-02	0.0	1.000000e-01	2.000000e-02	0.0	1.100000e-01	2.000000e-02	0.0	1.200000e-01	2.000000e-02	0.0	1.300000e-01	2.000000e-02	0.0	1.400000e-01	2.000000e-02	0.0	1.500000e-01	2.000000e-02	0.0	1.600000e-01	2.000000e-02	0.0	1.700000e-01	2.000000e-02	0.0	1.800000e-01	2.000000e-02	0.0	1.900000e-01	2.000000e-02	0.0	2.000000e-01	2.000000e-02	0.0	2.100000e-01	2.000000e-02	0.0	2.200000e-01	2.000000e-02	0.0	2.300000e-01	2.000000e-02	0.0	2.400000e-01	2.000000e-02	0.0	2.500000e-01	2.000000e-02	0.0	2.600000e-01	2.000000e-02	0.0	2.700000e-01	2.000000e-02	0.0	2.800000e-01	2.000000e-02	0.0	2.900000e-01	2.000000e-02	0.0	3.000000e-01	2.000000e-02	0.0	3.100000e-01	2.000000e-02	0.0	3.200000e-01	2.000000e-02	0.0	3.300000e-01	2.000000e-02	0.0	3.400000e-01	2.000000e-02	0.0	3.500000e-01	2.000000e-02	0.0	3.600000e-01	2.000000e-02	0.0	3.700000e-01	2.000000e-02	0.0	3.800000e-01	2.000000e-02	0.0	3.900000e-01	2.000000e-02	0.0	4.000000e-01	2.000000e-02	0.0	4.100000e-01	2.000000e-02	0.0	4.200000e-01	2.000000e-02	0.0	4.300000e-01	2.000000e-02	0.0	4.400000e-01	2.000000e-02	0.0	4.500000e-01	2.000000e-02	0.0	4.600000e-01	2.000000e-02	0.0	4.700000e-01	2.000000e-02	0.0	4.800000e-01	2.000000e-02	0.0	4.900000e-01	2.000000e-02	0.0	5.000000e-01	2.000000e-02	0.0	5.100000e-01	2.000000e-02	0.0	5.200000e-01	2.000000e-02	0.0	5.300000e-01	2.000000e-02	0.0	5.400000e-01	2.000000e-02	0.0	5.500000e-01	2.000000e-02	0.0	5.600000e-01	2.000000e-02	0.0	5.700000e-01	2.000000e-02	0.0	5.800000e-01	2.000000e-02	0.0	5.900000e-01	2.000000e-02	0.0	6.000000e-01	2.000000e-02	0.0	6.100000e-01	2.000000e-02	0.0	6.200000e-01	2.000000e-02	0.0	6.300000e-01	2.000000e-02	0.0	6.400000e-01	2.000000e-02	0.0	6.500000e-01	2.000000e-02	0.0	6.600000e-01	2.000000e-02	0.0	6.700000e-01	2.000000e-02	0.0	6.800000e-01	2.000000e-02	0.0	6.900000e-01	2.000000e-02	0.0	7.000000e-01	2.000000e-02	0.0	7.100000e-01	2.000000e-02	0.0	7.200000e-01	2.000000e-02	0.0	7.300000e-01	2.000000e-02	0.0	7.400000e-01	2.000000e-02	0.0	7.500000e-01	2.000000e-02	0.0	7.600000e-01	2.000000e-02	0.0	7.700000e-01	2.000000e-02	0.0	7.800000e-01	2.000000e-02	0.0	7.900000e-01	2.000000e-02	0.0	8.000000e-01	2.000000e-02	0.0	8.100000e-01	2.000000e-02	0.0	8.200000e-01	2.000000e-02	0.0	8.300000e-01	2.000000e-02	0.0	8.400000e-01	2.000000e-02	0.0	8.500000e-01	2.000000e-02	0.0	8.600000e-01	2.000000e-02	0.0	8.700000e-01	2.000000e-02	0.0	8.800000e-01	2.000000e-02	0.0	8.900000e-01	2.000000e-02	0.0	9.000000e-01	2.000000e-02	0.0	9.100000e-01	2.000000e-02	0.0	9.200000e-01	2.000000e-02	0.0	9.300000e-01	2.000000e-02	0.0	9.400000e-01	2.000000e-02	0.0	9.500000e-01	2.000000e-02	0.0	9.600000e-01	2.000000e-02	0.0	9.700000e-01	2.000000e-02	0.0	9.800000e-01	2.000000e-02	0.0	9.900000e-01	2.000000e-02	0.0	1.000000e+00	2.000000e-02	0.0	0.000000e+00	3.000000e-02	0.0	1.000000e-02	3.000000e-02	0.0	2.000000e-02	3.000000e-02	0.0	3.000000e-02	3.000000e-02	0.0	4.000000e-02	3.000000e-02	0.0	5.000000e-02	3.000000e-02	0.0	6.000000e-02	3.000000e-02	0.0	7.000000e-02	3.000000e-02	0.0	8.000000e-02	3.000000e-02	0.0	9.000000e-02	3.000000e-02	0.0	1.000000e-01	3.000000e-02	0.0	1.100000e-01	3.000000e-02	0.0	1.200000e-01	3.000000e-02	0.0	1.300000e-01	3.000000e-02	0.0	1.400000e-01	3.000000e-02	0.0	1.500000e-01	3.000000e-02	0.0	1.600000e-01	3.000000e-02	0.0	1.700000e-01	3.000000e-02	0.0	1.800000e-01	3.000000e-02	0.0	1.900000e-01	3.000000e-02	0.0	2.000000e-01	3.000000e-02	0.0	2.100000e-01	3.000000e-02	0.0	2.200000e-01	3.000000e-02	0.0	2.300000e-01	3.000000e-02	0.0	2.400000e-01	3.000000e-02	0.0	2.500000e-01	3.000000e-02	0.0	2.600000e-01	3.000000
[...]
POINT_DATA 10201

SCALARS Height double 1
LOOKUP_TABLE default
9.995974e-01	9.995996e-01	9.995984e-01	9.995980e-01	9.995980e-01	9.995974e-01	9.995968e-01	9.995960e-01	9.995946e-01	9.995962e-01	9.996127e-01	9.996716e-01	9.998497e-01	1.000349e+00	1.001586e+00	1.004033e+00	1.007588e+00	1.011214e+00	1.013782e+00	1.014972e+00	1.015254e+00	1.015147e+00	1.014491e+00	1.013059e+00	1.010710e+00	1.007624e+00	1.004240e+00	1.000965e+00	9.980587e-01	9.956719e-01	9.938936e-01	9.927521e-01	9.921711e-01	9.919785e-01	9.919644e-01	9.920593e-01	9.923348e-01	9.928777e-01	9.936740e-01	9.945879e-01	9.954552e-01	9.961761e-01	9.967310e-01	9.971430e-01	9.974434e-01	9.976571e-01	9.978018e-01	9.978921e-01	9.979443e-01	9.979774e-01	9.980115e-01	9.980705e-01	9.982220e-01	9.986520e-01	9.997765e-01	1.002125e+00	1.005727e+00	1.009616e+00	1.012552e+00	1.014032e+00	1.014445e+00	1.014399e+00	1.013870e+00	1.012608e+00	1.010439e+00	1.007511e+00	1.004207e+00	1.000930e+00	9.979643e-01	9.954762e-01	9.935725e-01	9.923008e-01	9.916101e-01	9.913464e-01	9.913043e-01	9.913670e-01	9.915979e-01	9.920772e-01	9.928300e-01	9.937394e-01	9.946280e-01	9.953734e-01	9.959405e-01	9.963509e-01	9.966440e-01	9.968575e-01	9.970195e-01	9.971485e-01	9.972549e-01	9.973447e-01	9.974214e-01	9.974869e-01	9.975428e-01	9.975903e-01	9.976307e-01	9.976646e-01	9.976925e-01	9.977142e-01	9.977299e-01	9.977399e-01	9.977462e-01	9.996084e-01	9.996195e-01	9.996178e-01	9.996173e-01	9.996153e-01	9.996130e-01	9.996084e-01	9.996025e-01	9.995962e-01	9.995969e-01	9.996099e-01	9.996559e-01	9.998029e-01	1.000263e+00	1.001512e+00	1.004093e+00	1.007817e+00	1.011495e+00	1.013966e+00	1.015054e+00	1.015296e+00	1.015256e+00	1.014715e+00	1.013232e+00	1.010768e+00	1.007622e+00	1.004237e+00	1.000968e+00	9.980572e-01	9.956645e-01	9.938934e-01	9.927668e-01	9.921951e-01	9.919979e-01	9.919744e-01	9.920250e-01	9.922861e-01	9.928564e-01	9.936905e-01	9.946299e-01	9.955047e-01	9.962228e-01	9.967718e-01	9.971785e-01	9.974750e-01	9.976849e-01	9.978251e-01	9.979108e-01	9.979582e-01	9.979840e-01	9.980030e-01	9.980381e-01	9.981521e-01	9.985397e-01	9.996690e-01	1.002141e+00	1.005928e+00	1.009912e+00	1.012765e+00	1.014127e+00	1.014484e+00	1.014467e+00	1.014081e+00	1.012799e+00	1.010520e+00	1.007508e+00	1.004188e+00	1.000917e+00	9.979506e-01	9.954578e-01	9.935596e-01	9.923020e-01	9.916219e-01	9.913586e-01	9.913125e-01	9.913387e-01	9.915396e-01	9.920467e-01	9.928362e-01	9.937728e-01	9.946720e-01	9.954156e-01	9.959749e-01	9.963770e-01	9.966635e-01	9.968720e-01	9.970300e-01	9.971560e-01	9.972606e-01	9.973494e-01	9.974253e-01	9.974899e-01	9.975449e-01	9.975917e-01	9.976314e-01	9.976647e-01	9.976919e-01	9.977135e-01	9.977297e-01	9.977400e-01	9.977399e-01	9.996137e-01	9.996192e-01	9.996172e-01	9.996165e-01	9.996146e-01	9.996122e-01	9.996083e-01	9.996030e-01	9.995984e-01	9.995992e-01	9.996102e-01	9.996499e-01	9.997857e-01	1.000240e+00	1.001524e+00	1.004182e+00	1.007926e+00	1.011491e+00	1.013861e+00	1.014937e+00	1.015212e+00	1.015197e+00	1.014716e+00	1.013207e+00	1.010688e+00	1.007563e+00	1.004231e+00	1.001003e+00	9.981129e-01	9.957318e-01	9.939684e-01	9.928377e-01	9.922513e-01	9.920373e-01	9.920020e-01	9.920369e-01	9.922852e-01	9.928685e-01	9.937071e-01	9.946326e-01	9.954931e-01	9.962058e-01	9.967561e-01	9.971665e-01	9.974659e-01	9.976772e-01	9.978179e-01	9.979036e-01	9.979511e-01	9.979771e-01	9.979968e-01	9.980294e-01	9.981350e-01	9.985194e-01	9.996798e-01	1.002234e+00	1.006063e+00	1.009937e+00	1.012671e+00	1.014005e+00	1.014391e+00	1.014401e+00	1.014076e+00	1.012793e+00	1.010454e+00	1.007448e+00	1.004174e+00	1.000949e+00	9.980071e-01	9.955293e-01	9.936406e-01	9.923798e-01	9.916870e-01	9.914062e-01	9.913435e-01	9.913563e-01	9.915372e-01	9.920524e-01	9.928550e-01	9.937767e-01	9.946590e-01	9.953951e-01	9.959551e-01	9.963611e-01	9.966520e-01	9.968638e-01	9.970239e-01	9.971511e-01	9.972561e-01	9.973454e-01	9.974220e-01	9.974878e-01	9.975441e-01	9.975920e-01	9.976324e-01	9.976661e-01	9.976935e-01	9.977151e-01	9.977314e-01	9.977419e-01	9.977435e-01	9.996121e-01	9.996164e-01	9.996155e-01	9.996149e-01	9.996132e-01	9.996107e-01	9.996067e-01	9.996012e-01	9.995970e-01	9.995967e-01	9.996044e-01	9.996364e-01	9.997577e-01	1.000194e+00	1.001490e+00	1.004205e+00	1.007980e+00	1.011507e+00	1.013817e+00	1.014868e+00	1.015148e+00	1.015149e+00	1.014735e+00	1.013270e+00	1.010705e+00	1.007554e+00	1.004245e+00	1.001045e+00	9.981672e-01	9.957870e-01	9.940173e-01	9.928778e-01	9.922814e-01	9.920590e-01	9.920206e-01	9.920469e-01	9.922676e-01	9.928459e-01	9.936981e-01	9.946242e-01	9.954777e-01	9.961881e-01	9.967404e-01	9.971544e-01	9.974565e-01	9.976694e-01	9.978106e-01	9.978962e-01	9.979434e-01	9.979693e-01	9.979882e-01	9.980173e-01	9.981125e-01	9.984810e-01	9.996460e-01	1.002251e+00	1.006117e+00	1.009958e+00	1.012625e+00	1.013929e+00	1.014320e+00	1.014338e+00	1.014074e+00	1.012857e+00	1.010479e+00	1.007436e+00	1.004180e+00	1.000983e+00	9.980543e-01	9.955809e-01	9.936890e-01	9.924209e-01	9.917172e-01	9.914273e-01	9.913595e-01	9.913683e-01	9.915213e-01	9.920223e-01	9.928401e-01	9.937687e-01	9.946432e-01	9.953749e-01	9.959366e-01	9.963463e-01	9.966407e-01	9.968552e-01	9.970170e-01	9.971451e-01	9.972508e-01	9.973406e-01	9.974180e-01	9.974846e-01	9.975416e-01	9.975898e-01	9.976302e-01	9.976636e-01	9.976906e-01	9.977119e-01	9.977281e-01	9.977386e-01	9.977409e-01	9.996105e-01	9.996154e-01	9.996139e-01	9.996136e-01	9.996117e-01	9.996090e-01	9.996051e-01	9.995995e-01	9.995952e-01	9.995942e-01	9.996001e-01	9.996273e-01	9.997373e-01	1.000158e+00	1.001452e+00	1.004201e+00	1.008004e+00	1.011507e+00	1.013763e+00	1.014785e+00	1.015063e+00	1.015069e+00	1.014709e+00	1.013326e+00	1.010761e+00	1.007574e+00	1.004274e+00	1.001109e+00	9.982496e-01	9.958700e-01	9.940883e-01	9.929325e-01	9.923210e-01	9.920859e-01	9.920441e-01	9.920648e-01	9.922567e-01	9.928124e-01	9.936725e-01	9.946053e-01	9.954564e-01	9.961650e-01	9.967202e-01	9.971385e-01	9.974443e-01	9.976596e-01	9.978023e-01	9.978889e-01	9.979369e-01	9.979635e-01	9.979821e-01	9.980097e-01	9.980990e-01	9.984538e-01	9.996143e-01	1.002246e+00	1.006141e+00	1.009966e+00	1.012575e+00	1.013844e+00	1.014234e+00	1.014258e+00	1.014031e+00	1.012904e+00	1.010543e+00	1.007460e+00	1.004206e+00	1.001037e+00	9.981323e-01	9.956635e-01	9.937626e-01	9.924817e-01	9.917637e-01	9.914583e-01	9.913834e-01	9.913886e-01	9.915182e-01	9.919886e-01	9.928092e-01	9.937504e-01	9.946224e-01	9.953503e-01	9.959137e-01	9.963275e-01	9.966261e-01	9.968435e-01	9.970076e-01	9.971374e-01	9.972443e-01	9.973354e-01	9.974139e-01	9.974815e-01	9.975391e-01	9.975878e-01	9.976282e-01	9.976613e-01	9.976878e-01	9.977087e-01	9.977245e-01	9.977349e-01	9.977379e-01	9.996078e-01	9.996134e-01	9.996111e-01	9.996110e-01	9.996092e-01	9.996067e-01	9.996030e-01	9.995980e-01	9.995930e-01	9.995912e-01	9.995952e-01	9.996185e-01	9.997198e-01	1.000125e+00	1.001408e+00	1.004170e+00	1.007986e+00	1.011471e+00	1.013696e+00	1.014695e+00	1.014971e+00	1.014979e+00	1.014661e+00	1.013365e+00	1.010845e+00	1.007633e+00	1.004324e+00	1.001185e+00	9.983517e-01	9.959750e-01	9.941796e-01	9.930025e-01	9.923703e-01	9.921212e-01	9.920704e-01	9.920874e-01	9.922504e-01	9.927687e-01	9.936229e-01	9.945682e-01	9.954251e-01	9.961352e-01	9.966942e-01	9.971170e-01	9.974269e-01	9.976450e-01	9.977902e-01	9.978785e-01	9.979284e-01	9.979560e-01	9.979747e-01	9.980017e-01	9.980877e-01	9.984334e-01	9.995849e-01	1.002225e+00	1.006133e+00	1.009936e+00	1.012514e+00	1.013759e+00	1.014142e+00	1.014169e+00	1.013969e+00	1.012926e+00	1.010625e+00	1.007526e+00	1.004255e+00	1.001107e+00	9.982297e-01	9.957675e-01	9.938558e-01	9.925562e-01	9.918184e-01	9.914995e-01	9.914138e-01	9.914147e-01	9.915227e-01	9.919536e-01	9.927604e-01	9.937133e-01	9.945911e-01	9.953194e-01	9.958849e-01	9.963034e-01	9.966067e-01	9.968279e-01	9.969950e-01	9.971274e-01	9.972366e-01	9.973294e-01	9.974091e-01	9.974775e-01	9.975356e-01	9.975845e-01	9.976250e-01	9.976579e-01	9.976841e-01	9.977044e-01	9.977198e-01	9.977296e-01	9.977334e-01	9.996034e-01	9.996095e-01	9.996067e-01	9.996069e-01	9.996057e-01	9.996037e-01	9.996004e-01	9.995960e-01	9.995909e-01	9.995879e-01	9.995900e-01	9.996101e-01	9.997056e-01	1.000098e+00	1.001361e+00	1.004114e+00	1.007938e+00	1.011412e+00	1.013618e+00	1.014604e+00	1.014874e+00	1.014881e+00	1.014594e+00	1.013385e+00	1.010937e+00	1.007724e+00	1.004398e+00	1.001270e+00	9.984630e-01	9.960947e-01	9.942874e-01	9.930871e-01	9.924295e-01	9.921612e-01	9.921029e-01	9.921149e-01	9.922479e-01	9.927178e-01	9.935516e-01	9.945103e-01	9.953810e-01	9.960968e-01	9.966605e-01	9.970892e-01	9.974041e-01	9.976260e-01	9.977741e-01	9.978659e-01	9.979186e-01	9.979468e-01	9.979661e-01	9.979933e-01	9.980785e-01	9.984198e-01	9.995594e-01	1.002187e+00	1.006092e+00	1.009885e+00	1.012442e+00	1.013670e+00	1.014047e+00	1.014075e+00	1.013895e+00	1.012928e+00	1.010711e+00	1.007624e+00	1.004332e+00	1.001195e+00	9.983419e-01	9.958891e-01	9.939685e-01	9.926478e-01	9.918870e-01	9.915498e-01	9.914556e-01	9.914512e-01	9.915370e-01	9.919221e-01	9.926973e-01	9.936536e-01	9.945455e-01	9.952799e-01	9.958491e-01	9.962730e-01	9.965821e-01	9.968087e-01	9.969804e-01	9.971167e-01	9.972288e-01	9.973233e-01	9.974039e-01	9.974724e-01	9.975304e-01	9.975794e-01	9.976201e-01	9.976534e-01	9.976797e-01	9.976997e-01	9.977143e-01	9.977229e-01	9.977272e-01	9.995975e-01	9.996043e-01	9.996005e-01	9.996011e-01	9.996001e-01	9.995993e-01	9.995971e-01	9.995931e-01	9.995889e-01	9.995845e-01	9.995848e-01	9.996025e-01	9.996944e-01	1.000080e+00	1.001320e+00	1.004041e+00	1.007851e+00	1.011328e+00	1.013530e+00	1.014512e+00	1.014778e+00	1.014780e+00	1.014519e+00	1.013391e+00	1.011025e+00	1.007842e+00	1.004501e+00	1.001371e+00	9.985806e-01	9.962223e-01	9.944059e-01	9.931818e-01	9.924974e-01	9.922073e-01	9.921378e-01	9.921459e-01	9.922508e-01	9.926653e-01	9.934623e-01	9.944233e-01	9.953112e-01	9.960391e-01	9.966109e-01	9.970481e-01	9.973716e-01	9.976015e-01	9.977560e-01	9.978526e-01	9.979067e-01	9.979356e-01	9.979555e-01	9.979830e-01	9.980689e-01	9.984098e-01	9.995385e-01	1.002140e+00	1.006020e+00	1.009803e+00	1.012353e+00	1.013575e+00	1.013951e+00	1.013979e+00	1.013815e+00	1.012922e+00	1.010804e+00	1.007756e+00	1.004453e+00	1.001308e+00	9.984653e-01	9.960230e-01	9.940952e-01	9.927538e-01	9.919687e-01	9.916110e-01	9.915068e-01	9.914980e-01	9.915625e-01	9.918975e-01	9.926275e-01	9.935774e-01	9.944845e-01	9.952299e-01	9.958047e-01	9.962360e-01	9.965538e-01	9.967882e-01	9.969663e-01	9.971069e-01	9.972214e-01	9.973169e-01	9.973975e-01	9.974654e-01	9.975227e-01	9.975715e-01	9.976128e-01	9.976471e-01	9.976744e-01	9.976945e-01	9.977082e-01	9.977151e-01	9.977198e-01	9.995930e-01	9.995982e-01	9.995953e-01	9.995964e-01	9.995958e-01	9.995950e-01	9.995933e-01	9.995906e-01	9.995869e-01	9.995832e-01	9.995809e-01	9.995972e-01	9.996874e-01	1.000067e+00	1.001288e+00	1.003963e+00	1.007731e+00	1.011205e+00	1.013418e+00	1.014407e+00	1.014672e+00	1.014671e+00	1.014434e+00	1.013387e+00	1.011125e+00	1.007992e+00	1.004646e+00	1.001503e+00	9.987163e-01	9.963653e-01	9.945393e-01	9.932901e-01	9.925760e-01	9.922617e-01	9.921777e-01	9.921812e-01	9.922611e-01	9.926185e-01	9.933669e-01	9.943208e-01	9.952256e-01	9.959696e-01	9.965513e-01	9.969973e-01	9.973304e-01	9.975691e-01	9.977309e-01	9.978324e-01	9.978884e-01	9.979185e-01	9.979397e-01	9.979688e-01	9.980573e-01	9.983999e-01	9.995192e-01	1.002084e+00	1.005917e+00	1.009681e+00	1.012235e+00	1.013468e+00	1.013850e+00	1.013879e+00	1.013733e+00	1.012914e+00	1.010903e+00	1.007918e+00	1.004613e+00	1.001449e+00	9.986069e-01	9.961705e-01	9.942355e-01	9.928728e-01	9.920621e-01	9.916827e-01	9.915637e-01	9.915513e-01	9.915980e-01	9.918818e-01	9.925574e-01	9.934885e-01	9.944060e-01	9.951672e-01	9.957538e-01	9.961955e-01	9.965243e-01	9.967691e-01	9.969546e-01	9.970992e-01	9.972150e-01	9.973104e-01	9.973897e-01	9.974560e-01	9.975122e-01	9.975608e-01	9.976028e-01	9.976385e-01	9.976672e-01	9.976881e-01	9.977017e-01	9.977076e-01	9.977131e-01	9.995958e-01	9.996012e-01	9.995957e-01	9.995963e-01	9.995951e-01	9.995938e-01	9.995916e-01	9.995879e-01	9.995850e-01	9.995829e-01	9.995817e-01	9.995969e-01	9.996863e-01	1.000063e+00	1.001263e+00	1.003884e+00	1.007591e+00	1.011044e+00	1.013271e+00	1.014278e+00	1.014554e+00	1.014557e+00	1.014353e+00	1.013402e+00	1.011262e+00	1.008193e+00	1.004853e+00	1.001691e+00	9.988940e-01	9.965404e-01	9.947005e-01	9.934219e-01	9.926734e-01	9.923300e-01	9.922291e-01	9.922258e-01	9.922835e-01	9.925838e-01	9.932771e-01	9.942149e-01	9.951340e-01	9.958960e-01	9.964903e-01	9.969460e-01	9.972881e-01	9.975344e-01	9.976999e-01	9.978010e-01	9.978568e-01	9.978874e-01	9.979097e-01	9.979425e-01	9.980383e-01	9.983892e-01	9.995011e-01	1.002023e+00	1.005792e+00	1.009521e+00	1.012082e+00	1.013338e+00	1.013737e+00	1.013772e+00	1.013646e+00	1.012901e+00	1.011005e+00	1.008104e+00	1.004816e+00	1.001634e+00	9.987770e-01	9.963378e-01	9.943935e-01	9.930074e-01	9.921669e-01	9.917616e-01	9.916262e-01	9.916077e-01	9.916393e-01	9.918742e-01	9.924900e-01	9.933952e-01	9.943223e-01	9.951020e-01	9.957031e-01	9.961563e-01	9.964965e-01	9.967515e-01	9.969440e-01	9.970918e-01	9.972084e-01	9.973027e-01	9.973804e-01	9.974453e-01	9.975009e-01	9.975495e-01	9.975921e-01	9.976287e-01	9.976585e-01	9.976807e-01	9.976959e-01	9.977030e-01	9.977103e-01	9.996193e-01	9.996181e-01	9.996073e-01	9.996054e-01	9.996019e-01	9.995988e-01	9.995949e-01	9.995904e-01	9.995853e-01	9.995829e-01	9.995826e-01	9.995987e-01	9.996907e-01	1.000065e+00	1.001245e+00	1.003808e+00	1.007445e+00	1.010865e+00	1.013107e+00	1.014154e+00	1.014464e+00	1.014479e+00	1.014315e+00	1.013463e+00	1.011435e+00	1.008450e+00	1.005132e+00	1.001955e+00	9.991371e-01	9.967683e-01	9.949076e-01	9.935944e-01	9.928033e-01	9.924250e-01	9.923020e-01	9.922892e-01	9.923272e-01	9.925699e-01	9.931954e-01	9.941123e-01	9.950472e-01	9.958334e-01	9.964441e-01	9.969087e-01	9.972569e-01	9.975063e-01	9.976717e-01	9.977700e-01	9.978230e-01	9.978519e-01	9.978741e-01	9.979091e-01	9.980117e-01	9.983717e-01	9.994796e-01	1.001955e+00	1.005651e+00	1.009333e+00	1.011897e+00	1.013180e+00	1.013604e+00	1.013650e+00	1.013545e+00	1.012877e+00	1.011102e+00	1.008303e+00	1.005055e+00	1.001862e+00	9.989845e-01	9.965330e-01	9.945750e-01	9.931622e-01	9.922863e-01	9.918486e-01	9.916923e-01	9.916655e-01	9.916852e-01	9.918723e-01	9.924235e-01	9.932964e-01	9.942317e-01	9.950330e-01	9.956532e-01	9.961194e-01	9.964691e-01	9.967322e-01	9.969305e-01	9.970815e-01	9.971988e-01	9.972927e-01	9.973700e-01	9.974354e-01	9.974921e-01	9.975417e-01	9.975844e-01	9.976207e-01	9.976506e-01	9.976742e-01	9.976919e-01	9.977012e-01	9.977107e-01	9.996902e-01	9.996715e-01	9.996499e-01	9.996413e-01	9.996325e-01	9.996252e-01	9.996181e-01	9.996112e-01	9.996054e-01	9.996017e-01	9.996005e-01	9.996137e-01	9.997058e-01	1.000081e+00	1.001238e+00	1.003748e+00	1.007322e+00	1.010721e+00	1.012992e+00	1.014086e+00	1.014426e+00	1.014451e+00	1.014317e+00	1.013547e+00	1.011639e+00	1.008751e+00	1.005476e+00	1.002297e+00	9.994593e-01	9.970685e-01	9.951815e-01	9.938293e-01	9.929904e-01	9.925693e-01	9.924164e-01	9.923904e-01	9.924108e-01	9.925932e-01	9.931397e-01	9.940181e-01	9.949661e-01	9.957786e-01	9.964086e-01	9.968820e-01	9.972321e-01	9.974816e-01	9.976463e-01	9.977440e-01	9.977970e-01	9.978263e-01	9.978497e-01	9.978878e-01	9.979960e-01	9.983618e-01	9.994582e-01	1.001880e+00	1.005494e+00	1.009125e+00	1.011685e+00	1.012993e+00	1.013445e+00	1.013505e+00	1.013420e+00	1.012832e+00	1.011187e+00	1.008503e+00	1.005311e+00	1.002124e+00	9.992300e-01	9.967607e-01	9.947841e-01	9.933414e-01	9.924245e-01	9.919474e-01	9.917639e-01	9.917263e-01	9.917357e-01	9.918770e-01	9.923574e-01	9.931884e-01	9.941284e-01	9.949559e-01	9.956000e-01	9.960810e-01	9.964385e-01	9.967066e-01	9.969093e-01	9.970637e-01	9.971833e-01	9.972792e-01	9.973591e-01	9.974276e-01	9.974871e-01	9.975381e-01	9.975809e-01	9.976162e-01	9.976454e-01	9.976694e-01	9.976886e-01	9.976991e-01	9.977104e-01	9.998918e-01	9.998351e-01	9.997929e-01	9.997711e-01	9.997512e-01	9.997354e-01	9.997225e-01	9.997120e-01	9.997044e-01	9.997009e-01	9.997012e-01	9.997141e-01	9.998085e-01	1.000184e+00	1.001318e+00	1.003751e+00	1.007247e+00	1.010628e+00	1.012926e+00	1.014057e+00	1.014423e+00	1.014455e+00	1.014347e+00	1.013668e+00	1.011890e+00	1.009116e+00	1.005904e+00	1.002742e+00	9.998948e-01	9.974832e-01	9.955676e-01	9.941752e-01	9.932856e-01	9.928130e-01	9.926227e-01	9.925743e-01	9.925759e-01	9.926943e-01	9.931470e-01	9.939627e-01	9.949003e-01	9.957347e-01	9.963877e-01	9.968720e-01	9.972214e-01	9.974643e-01	9.976235e-01	9.977195e-01	9.977739e-01	9.978063e-01	9.978343e-01	9.978776e-01	9.979917e-01	9.983620e-01	9.994455e-01	1.001804e+00	1.005323e+00	1.008897e+00	1.011454e+00	1.012785e+00	1.013260e+00	1.013332e+00	1.013268e+00	1.012760e+00	1.011251e+00	1.008690e+00	1.005567e+00	1.002400e+00	9.995000e-01	9.970152e-01	9.950179e-01	9.935438e-01	9.925837e-01	9.920618e-01	9.918462e-01	9.917921e-01	9.917923e-01	9.918920e-01	9.922949e-01	9.930701e-01	9.940064e-01	9.948609e-01	9.955335e-01	9.960330e-01	9.963991e-01	9.966712e-01	9.968773e-01	9.970360e-01	9.971606e-01	9.972620e-01	9.973474e-01	9.974206e-01	9.974833e-01	9.975361e-01	9.975792e-01	9.976138e-01	9.976419e-01	9.976649e-01	9.976833e-01	9.976931e-01	9.977050e-01	1.000435e+00	1.000328e+00	1.000267e+00	1.000229e+00	1.000194e+00	1.000164e+00	1.000140e+00	1.000122e+00	1.000109e+00	1.000102e+00	1.000100e+00	1.000112e+00	1.000207e+00	1.000580e+00	1.001683e+00	1.004033e+00	1.007423e+00	1.010740e+00	1.013037e+00	1.014191e+00	1.014582e+00	1.014627e+00	1.014541e+00	1.013955e+00	1.012321e+00	1.009675e+00	1.006539e+00	1.003407e+00	1.000558e+00	9.981282e-01	9.961819e-01	9.947464e-01	9.938028e-01	9.932732e-01	9.930326e-01	9.929489e-01	9.929262e-01	9.929738e-01	9.933141e-01	9.940399e-01	9.949420e-01	9.957718e-01	9.964280e-01	9.969116e-01	9.972543e-01	9.974874e-01	9.976366e-01	9.977250e-01	9.977747e-01	9.978051e-01	9.978323e-01	9.978770e-01	9.979953e-01	9.983713e-01	9.994396e-01	1.001731e+00	1.005145e+00	1.008650e+00	1.011204e+00	1.012558e+00	1.013054e+00	1.013136e+00	1.013088e+00	1.012657e+00	1.011286e+00	1.008855e+00	1.005808e+00	1.002671e+00	9.997749e-01	9.972810e-01	9.952647e-01	9.937600e-01	9.927579e-01	9.921911e-01	9.919399e-01	9.918662e-01	9.918575e-01	9.919192e-01	9.922414e-01	9.929460e-01	9.938639e-01	9.947391e-01	9.954427e-01	9.959653e-01	9.963450e-01	9.966243e-01	9.968355e-01	9.970001e-01	9.971319e-01	9.972411e-01	9.973330e-01	9.974110e-01	9.974769e-01	9.975315e-01	9.975754e-01	9.976101e-01	9.976373e-01	9.976581e-01	9.976734e-01	9.976800e-01	9.976908e-01	1.001730e+00	1.001624e+00	1.001592e+00	1.001563e+00	1.001525e+00	1.001486e+00	1.001445e+00	1.001407e+00	1.001375e+00	1.001347e+00	1.001324e+00	1.001313e+00	1.001381e+00	1.001721e+00	1.002763e+00	1.005006e+00	1.008280e+00	1.011531e+00	1.013807e+00	1.014949e+00	1.015321e+00	1.015346e+00	1.015262e+00	1.014755e+00	1.013254e+00	1.010723e+00	1.007647e+00	1.004529e+00	1.001669e+00	9.992101e-01	9.972228e-01	9.957347e-01	9.947295e-01	9.941357e-01	9.938351e-01	9.937004e-01	9.936433e-01	9.936246e-01	9.938299e-01	9.944330e-01	9.952649e-01	9.960637e-01	9.966951e-01	9.971465e-01	9.974515e-01	9.976482e-01	9.977661e-01	9.978285e-01	9.978563e-01	9.978681e-01	9.978796e-01	9.979118e-01	9.980245e-01	9.983999e-01	9.994509e-01	1.001669e+00	1.004967e+00	1.008389e+00	1.010935e+00	1.012317e+00	1.012837e+00	1.012930e+00	1.012889e+00	1.012524e+00	1.011290e+00	1.008996e+00	1.006033e+00	1.002930e+00	1.000043e+00	9.975439e-01	9.955101e-01	9.939755e-01	9.929334e-01	9.923245e-01	9.920387e-01	9.919445e-01	9.919274e-01	9.919583e-01	9.922019e-01	9.928222e-01	9.937050e-01	9.945908e-01	9.953230e-01	9.958734e-01	9.962737e-01	9.965671e-01	9.967882e-01	9.969611e-01	9.971007e-01	9.972160e-01	9.973130e-01	9.973943e-01	9.974627e-01	9.975190e-01	9.975644e-01	9.976001e-01	9.976269e-01	9.976454e-01	9.976567e-01	9.976594e-01	9.976686e-01	1.004209e+00	1.004224e+00	1.004282e+00	1.004302e+00	1.004293e+00	1.004263e+00	1.004211e+00	1.004144e+00	1.004069e+00	1.003990e+00	1.003911e+00	1.003847e+00	1.003837e+00	1.004097e+00	1.005031e+00	1.007126e+00	1.010233e+00	1.013363e+00	1.015587