# vtk DataFile Version 3.0
vtk output
ASCII
DATASET STRUCTURED_GRID
DIMENSIONS 101 101 1
POINTS 10201 double
0.000000e+00	0.000000e+00	0.0	1.000000e-02	0.000000e+00	0.0	2.000000e-02	0.000000e+00	0.0	3.000000e-02	0.000000e+00	0.0	4.000000e-02	0.000000e+00	0.0	5.000000e-02	0.000000e+00	0.0	6.000000e-02	0.000000e+00	0.0	7.000000e-02	0.000000e+00	0.0	8.000000e-02	0.000000e+00	0.0	9.000000e-02	0.000000e+00	0.0	1.000000e-01	0.000000e+00	0.0	1.100000e-01	0.000000e+00	0.0	1.200000e-01	0.000000e+00	0.0	1.300000e-01	0.000000e+00	0.0	1.400000e-01	0.000000e+00	0.0	1.500000e-01	0.000000e+00	0.0	1.600000e-01	0.000000e+00	0.0	1.700000e-01	0.000000e+00	0.0	1.800000e-01	0.000000e+00	0.0	1.900000e-01	0.000000e+00	0.0	2.000000e-01	0.000000e+00	0.0	2.100000e-01	0.000000e+00	0.0	2.200000e-01	0.000000e+00	0.0	2.300000e-01	0.000000e+00	0.0	2.400000e-01	0.000000e+00	0.0	2.500000e-01	0.000000e+00	0.0	2.600000e-01	0.000000e+00	0.0	2.700000e-01	0.000000e+00	0.0	2.800000e-01	0.000000e+00	0.0	2.900000e-01	0.000000e+00	0.0	3.000000e-01	0.000000e+00	0.0	3.100000e-01	0.000000e+00	0.0	3.200000e-01	0.000000e+00	0.0	3.300000e-01	0.000000e+00	0.0	3.400000e-01	0.000000e+00	0.0	3.500000e-01	0.000000e+00	0.0	3.600000e-01	0.000000e+00	0.0	3.700000e-01	0.000000e+00	0.0	3.800000e-01	0.000000e+00	0.0	3.900000e-01	0.000000e+00	0.0	4.000000e-01	0.000000e+00	0.0	4.100000e-01	0.000000e+00	0.0	4.200000e-01	0.000000e+00	0.0	4.300000e-01	0.000000e+00	0.0	4.400000e-01	0.000000e+00	0.0	4.500000e-01	0.000000e+00	0.0	4.600000e-01	0.000000e+00	0.0	4.700000e-01	0.000000e+00	0.0	4.800000e-01	0.000000e+00	0.0	4.900000e-01	0.000000e+00	0.0	5.000000e-01	0.000000e+00	0.0	5.100000e-01	0.000000e+00	0.0	5.200000e-01	0.000000e+00	0.0	5.300000e-01	0.000000e+00	0.0	5.400000e-01	0.000000e+00	0.0	5.500000e-01	0.000000e+00	0.0	5.600000e-01	0.000000e+00	0.0	5.700000e-01	0.000000e+00	0.0	5.800000e-01	0.000000e+00	0.0	5.900000e-01	0.000000e+00	0.0	6.000000e-01	0.000000e+00	0.0	6.100000e-01	0.000000e+00	0.0	6.200000e-01	0.000000e+00	0.0	6.300000e-01	0.000000e+00	0.0	6.400000e-01	0.000000e+00	0.0	6.500000e-01	0.000000e+00	0.0	6.600000e-01	0.000000e+00	0.0	6.700000e-01	0.000000e+00	0.0	6.800000e-01	0.000000e+00	0.0	6.900000e-01	0.000000e+00	0.0	7.000000e-01	0.000000e+00	0.0	7.100000e-01	0.000000e+00	0.0	7.200000e-01	0.000000e+00	0.0	7.300000e-01	0.000000e+00	0.0	7.400000e-01	0.000000e+00	0.0	7.500000e-01	0.000000e+00	0.0	7.600000e-01	0.000000e+00	0.0	7.700000e-01	0.000000e+00	0.0	7.800000e-01	0.000000e+00	0.0	7.900000e-01	0.000000e+00	0.0	8.000000e-01	0.000000e+00	0.0	8.100000e-01	0.000000e+00	0.0	8.200000e-01	0.000000e+00	0.0	8.300000e-01	0.000000e+00	0.0	8.400000e-01	0.000000e+00	0.0	8.500000e-01	0.000000e+00	0.0	8.600000e-01	0.000000e+00	0.0	8.700000e-01	0.000000e+00	0.0	8.800000e-01	0.000000e+00	0.0	8.900000e-01	0.000000e+00	0.0	9.000000e-01	0.000000e+00	0.0	9.100000e-01	0.000000e+00	0.0	9.200000e-01	0.000000e+00	0.0	9.300000e-01	0.000000e+00	0.0	9.400000e-01	0.000000e+00	0.0	9.500000e-01	0.000000e+00	0.0	9.600000e-01	0.000000e+00	0.0	9.700000e-01	0.000000e+00	0.0	9.800000e-01	0.000000e+00	0.0	9.900000e-01	0.000000e+00	0.0	1.000000e+00	0.000000e+00	0.0	0.000000e+00	1.000000e-02	0.0	1.000000e-02	1.000000e-02	0.0	2.000000e-02	1.000000e-02	0.0	3.000000e-02	1.000000e-02	0.0	4.000000e-02	1.000000e-02	0.0	5.000000e-02	1.000000e-02	0.0	6.000000e-02	1.000000e-02	0.0	7.000000e-02	1.000000e-02	0.0	8.000000e-02	1.000000e-02	0.0	9.000000e-02	1.000000e-02	0.0	1.000000e-01	1.000000e-02	0.0	1.100000e-01	1.000000e-02	0.0	1.200000e-01	1.000000e-02	0.0	1.300000e-01	1.000000e-02	0.0	1.400000e-01	1.000000e-02	0.0	1.500000e-01	1.000000e-02	0.0	1.600000e-01	1.000000e-02	0.0	1.700000e-01	1.000000e-02	0.0	1.800000e-01	1.000000e-02	0.0	1.900000e-01	1.000000e-02	0.0	2.000000e-01	1.000000e-02	0.0	2.100000e-01	1.000000e-02	0.0	2.200000e-01	1.000000e-02	0.0	2.300000e-01	1.000000e-02	0.0	2.400000e-01	1.000000e-02	0.0	2.500000e-01	1.000000e-02	0.0	2.600000e-01	1.000000e-02	0.0	2.700000e-01	1.000000e-02	0.0	2.800000e-01	1.000000e-02	0.0	2.900000e-01	1.000000e-02	0.0	3.000000e-01	1.000000e-02	0.0	3.100000e-01	1.000000e-02	0.0	3.200000e-01	1.000000e-02	0.0	3.300000e-01	1.000000e-02	0.0	3.400000e-01	1.000000e-02	0.0	3.500000e-01	1.000000e-02	0.0	3.600000e-01	1.000000e-02	0.0	3.700000e-01	1.000000e-02	0.0	3.800000e-01	1.000000e-02	0.0	3.900000e-01	1.000000e-02	0.0	4.000000e-01	1.000000e-02	0.0	4.100000e-01	1.000000e-02	0.0	4.200000e-01	1.000000e-02	0.0	4.300000e-01	1.000000e-02	0.0	4.400000e-01	1.000000e-02	0.0	4.500000e-01	1.000000e-02	0.0	4.600000e-01	1.000000e-02	0.0	4.700000e-01	1.000000e-02	0.0	4.800000e-01	1.000000e-02	0.0	4.900000e-01	1.000000e-02	0.0	5.000000e-01	1.000000e-02	0.0	5.100000e-01	1.000000e-02	0.0	5.200000e-01	1.000000e-02	0.0	5.300000e-01	1.000000e-02	0.0	5.400000e-01	1.000000e-02	0.0	5.500000e-01	1.000000e-02	0.0	5.600000e-01	1.000000e-02	0.0	5.700000e-01	1.000000e-02	0.0	5.800000e-01	1.000000e-02	0.0	5.900000e-01	1.000000e-02	0.0	6.000000e-01	1.000000e-02	0.0	6.100000e-01	1.000000e-02	0.0	6.200000e-01	1.000000e-02	0.0	6.300000e-01	1.000000e-02	0.0	6.400000e-01	1.000000e-02	0.0	6.500000e-01	1.000000e-02	0.0	6.600000e-01	1.000000e-02	0.0	6.700000e-01	1.000000e-02	0.0	6.800000e-01	1.000000e-02	0.0	6.900000e-01	1.000000e-02	0.0	7.000000e-01	1.000000e-02	0.0	7.100000e-01	1.000000e-02	0.0	7.200000e-01	1.000000e-02	0.0	7.300000e-01	1.000000e-02	0.0	7.400000e-01	1.000000e-02	0.0	7.500000e-01	1.000000e-02	0.0	7.600000e-01	1.000000e-02	0.0	7.700000e-01	1.000000e-02	0.0	7.800000e-01	1.000000e-02	0.0	7.900000e-01	1.000000e-02	0.0	8.000000e-01	1.000000e-02	0.0	8.100000e-01	1.000000e-02	0.0	8.200000e-01	1.000000e-02	0.0	8.300000e-01	1.000000e-02	0.0	8.400000e-01	1.000000e-02	0.0	8.500000e-01	1.000000e-02	0.0	8.600000e-01	1.000000e-02	0.0	8.700000e-01	1.000000e-02	0.0	8.800000e-01	1.000000e-02	0.0	8.900000e-01	1.000000e-02	0.0	9.000000e-01	1.000000e-02	0.0	9.100000e-01	1.000000e-02	0.0	9.200000e-01	1.000000e-02	0.0	9.300000e-01	1.000000e-02	0.0	9.400000e-01	1.000000e-02	0.0	9.500000e-01	1.000000e-02	0.0	9.600000e-01	1.000000e-02	0.0	9.700000e-01	1.000000e-02	0.0	9.800000e-01	1.000000e-02	0.0	9.900000e-01	1.000000e-02	0.0	1.000000e+00	1.000000e-02	0.0	0.000000e+00	2.000000e-02	0.0	1.000000e-02	2.000000e-02	0.0	2.000000e-02	2.000000e-02	0.0	3.000000e-02	2.000000e-02	0.0	4.000000e-02	2.000000e-02	0.0	5.000000e-02	2.000000e-02	0.0	6.000000e-02	2.000000e-02	0.0	7.000000e-02	2.000000e-02	0.0	8.000000e-02	2.000000e-02	0.0	9.000000e-02	2.000000e-02	0.0	1.000000e-01	2.000000e-02	0.0	1.100000e-01	2.000000e-02	0.0	1.200000e-01	2.000000e-02	0.0	1.300000e-01	2.000000e-02	0.0	1.400000e-01	2.000000e-02	0.0	1.500000e-01	2.000000e-02	0.0	1.600000e-01	2.000000e-02	0.0	1.700000e-01	2.000000e-02	0.0	1.800000e-01	2.000000e-02	0.0	1.900000e-01	2.000000e-02	0.0	2.000000e-01	2.000000e-02	0.0	2.100000e-01	2.000000e-02	0.0	2.200000e-01	2.000000e-02	0.0	2.300000e-01	2.000000e-02	0.0	2.400000e-01	2.000000e-02	0.0	2.500000e-01	2.000000e-02	0.0	2.600000e-01	2.000000e-02	0.0	2.700000e-01	2.000000e-02	0.0	2.800000e-01	2.000000e-02	0.0	2.900000e-01	2.000000e-02	0.0	3.000000e-01	2.000000e-02	0.0	3.100000e-01	2.000000e-02	0.0	3.200000e-01	2.000000e-02	0.0	3.300000e-01	2.000000e-02	0.0	3.400000e-01	2.000000e-02	0.0	3.500000e-01	2.000000e-02	0.0	3.600000e-01	2.000000e-02	0.0	3.700000e-01	2.000000e-02	0.0	3.800000e-01	2.000000e-02	0.0	3.900000e-01	2.000000e-02	0.0	4.000000e-01	2.000000e-02	0.0	4.100000e-01	2.000000e-02	0.0	4.200000e-01	2.000000e-02	0.0	4.300000e-01	2.000000e-02	0.0	4.400000e-01	2.000000e-02	0.0	4.500000e-01	2.000000e-02	0.0	4.600000e-01	2.000000e-02	0.0	4.700000e-01	2.000000e-02	0.0	4.800000e-01	2.000000e-02	0.0	4.900000e-01	2.000000e-02	0.0	5.000000e-01	2.000000e-02	0.0	5.100000e-01	2.000000e-02	0.0	5.200000e-01	2.000000e-02	0.0	5.300000e-01	2.000000e-02	0.0	5.400000e-01	2.000000e-02	0.0	5.500000e-01	2.000000e-02	0.0	5.600000e-01	2.000000e-02	0.0	5.700000e-01	2.000000e-02	0.0	5.800000e-01	2.000000e-02	0.0	5.900000e-01	2.000000e-02	0.0	6.000000e-01	2.000000e-02	0.0	6.100000e-01	2.000000e-02	0.0	6.200000e-01	2.000000e-02	0.0	6.300000e-01	2.000000e-02	0.0	6.400000e-01	2.000000e-02	0.0	6.500000e-01	2.000000e-02	0.0	6.600000e-01	2.000000e-02	0.0	6.700000e-01	2.000000e-02	0.0	6.800000e-01	2.000000e-02	0.0	6.900000e-01	2.000000e-02	0.0	7.000000e-01	2.000000e-02	0.0	7.100000e-01	2.000000e-02	0.0	7.200000e-01	2.000000e-02	0.0	7.300000e-01	2.000000e-02	0.0	7.400000e-01	2.000000e-02	0.0	7.500000e-01	2.000000e-02	0.0	7.600000e-01	2.000000e-02	0.0	7.700000e-01	2.000000e-02	0.0	7.800000e-01	2.000000e-02	0.0	7.900000e-01	2.000000e-02	0.0	8.000000e-01	2.000000e-02	0.0	8.100000e-01	2.000000e-02	0.0	8.200000e-01	2.000000e-02	0.0	8.300000e-01	2.000000e-02	0.0	8.400000e-01	2.000000e-02	0.0	8.500000e-01	2.000000e-02	0.0	8.600000e-01	2.000000e-02	0.0	8.700000e-01	2.000000e-02	0.0	8.800000e-01	2.000000e-02	0.0	8.900000e-01	2.000000e-02	0.0	9.000000e-01	2.000000e-02	0.0	9.100000e-01	2.000000e-02	0.0	9.200000e-01	2.000000e-02	0.0	9.300000e-01	2.000000e-02	0.0	9.400000e-01	2.000000e-02	0.0	9.500000e-01	2.000000e-02	0.0	9.600000e-01	2.000000e-02	0.0	9.700000e-01	2.000000e-02	0.0	9.800000e-01	2.000000e-02	0.0	9.900000e-01	2.000000e-02	0.0	1.000000e+00	2.000000e-02	0.0	0.000000e+00	3.000000e-02	0.0	1.000000e-02	3.000000e-02	0.0	2.000000e-02	3.000000e-02	0.0	3.000000e-02	3.000000e-02	0.0	4.000000e-02	3.000000e-02	0.0	5.000000e-02	3.000000e-02	0.0	6.000000e-02	3.000000e-02	0.0	7.000000e-02	3.000000e-02	0.0	8.000000e-02	3.000000e-02	0.0	9.000000e-02	3.000000e-02	0.0	1.000000e-01	3.000000e-02	0.0	1.100000e-01	3.000000e-02	0.0	1.200000e-01	3.000000e-02	0.0	1.300000e-01	3.000000e-02	0.0	1.400000e-01	3.000000e-02	0.0	1.500000e-01	3.000000e-02	0.0	1.600000e-01	3.000000e-02	0.0	1.700000e-01	3.000000e-02	0.0	1.800000e-01	3.000000e-02	0.0	1.900000e-01	3.000000e-02	0.0	2.000000e-01	3.000000e-02	0.0	2.100000e-01	3.000000e-02	0.0	2.200000e-01	3.000000e-02	0.0	2.300000e-01	3.000000e-02	0.0	2.400000e-01	3.000000e-02	0.0	2.500000e-01	3.000000e-02	0.0	2.600000e-01	3.000000
[...]
POINT_DATA 10201

SCALARS Height double 1
LOOKUP_TABLE default
9.992624e-01	9.992821e-01	9.992743e-01	9.992707e-01	9.992667e-01	9.992640e-01	9.992626e-01	9.992615e-01	9.992624e-01	9.992653e-01	9.992672e-01	9.992669e-01	9.992639e-01	9.992591e-01	9.992543e-01	9.992513e-01	9.992518e-01	9.992563e-01	9.992594e-01	9.992613e-01	9.992603e-01	9.992519e-01	9.992380e-01	9.992227e-01	9.992084e-01	9.991962e-01	9.991895e-01	9.991860e-01	9.991833e-01	9.991799e-01	9.991745e-01	9.991670e-01	9.991585e-01	9.991503e-01	9.991420e-01	9.991343e-01	9.991267e-01	9.991187e-01	9.991087e-01	9.990963e-01	9.990810e-01	9.990634e-01	9.990443e-01	9.990250e-01	9.990063e-01	9.989880e-01	9.989694e-01	9.989517e-01	9.989391e-01	9.989310e-01	9.989395e-01	9.990241e-01	9.993009e-01	1.000051e+00	1.001891e+00	1.005483e+00	1.010493e+00	1.015153e+00	1.017796e+00	1.018562e+00	1.018495e+00	1.017708e+00	1.015893e+00	1.012826e+00	1.008800e+00	1.004315e+00	9.999202e-01	9.959878e-01	9.927410e-01	9.903577e-01	9.888928e-01	9.882100e-01	9.880082e-01	9.879924e-01	9.881875e-01	9.887008e-01	9.895561e-01	9.905540e-01	9.914208e-01	9.919700e-01	9.921263e-01	9.918833e-01	9.912650e-01	9.903672e-01	9.893911e-01	9.885953e-01	9.881278e-01	9.879282e-01	9.878960e-01	9.880633e-01	9.887780e-01	9.903679e-01	9.930519e-01	9.970264e-01	1.002699e+00	1.010538e+00	1.019996e+00	1.028906e+00	1.034918e+00	1.037493e+00	1.038274e+00	9.992799e-01	9.992980e-01	9.992762e-01	9.992720e-01	9.992681e-01	9.992657e-01	9.992647e-01	9.992654e-01	9.992673e-01	9.992692e-01	9.992693e-01	9.992673e-01	9.992633e-01	9.992584e-01	9.992542e-01	9.992512e-01	9.992457e-01	9.992499e-01	9.992471e-01	9.992449e-01	9.992414e-01	9.992340e-01	9.992258e-01	9.992134e-01	9.991994e-01	9.991919e-01	9.991845e-01	9.991799e-01	9.991765e-01	9.991724e-01	9.991669e-01	9.991604e-01	9.991536e-01	9.991473e-01	9.991418e-01	9.991356e-01	9.991285e-01	9.991202e-01	9.991099e-01	9.990971e-01	9.990812e-01	9.990630e-01	9.990435e-01	9.990241e-01	9.990054e-01	9.989868e-01	9.989674e-01	9.989493e-01	9.989353e-01	9.989238e-01	9.989168e-01	9.989362e-01	9.990869e-01	9.997248e-01	1.001632e+00	1.005576e+00	1.010872e+00	1.015393e+00	1.017853e+00	1.018574e+00	1.018556e+00	1.017958e+00	1.016056e+00	1.012842e+00	1.008701e+00	1.004191e+00	9.998049e-01	9.958629e-01	9.926235e-01	9.902808e-01	9.888767e-01	9.882371e-01	9.880218e-01	9.879469e-01	9.880992e-01	9.886454e-01	9.895336e-01	9.905457e-01	9.914165e-01	9.919661e-01	9.921227e-01	9.918796e-01	9.912612e-01	9.903588e-01	9.893662e-01	9.885354e-01	9.880408e-01	9.878938e-01	9.879096e-01	9.880819e-01	9.887329e-01	9.902262e-01	9.927995e-01	9.966795e-01	1.002387e+00	1.010509e+00	1.020288e+00	1.029172e+00	1.035194e+00	1.037669e+00	1.038411e+00	9.992879e-01	9.993071e-01	9.992874e-01	9.992831e-01	9.992789e-01	9.992755e-01	9.992731e-01	9.992712e-01	9.992701e-01	9.992715e-01	9.992725e-01	9.992721e-01	9.992698e-01	9.992661e-01	9.992615e-01	9.992564e-01	9.992526e-01	9.992527e-01	9.992515e-01	9.992504e-01	9.992477e-01	9.992400e-01	9.992307e-01	9.992195e-01	9.992111e-01	9.992042e-01	9.992019e-01	9.991983e-01	9.991940e-01	9.991880e-01	9.991802e-01	9.991713e-01	9.991622e-01	9.991532e-01	9.991445e-01	9.991376e-01	9.991314e-01	9.991243e-01	9.991151e-01	9.991031e-01	9.990882e-01	9.990709e-01	9.990524e-01	9.990336e-01	9.990153e-01	9.989971e-01	9.989770e-01	9.989589e-01	9.989437e-01	9.989301e-01	9.989215e-01	9.989402e-01	9.990922e-01	9.997465e-01	1.001743e+00	1.005810e+00	1.011079e+00	1.015415e+00	1.017731e+00	1.018440e+00	1.018450e+00	1.017972e+00	1.016096e+00	1.012781e+00	1.008670e+00	1.004276e+00	9.999563e-01	9.960484e-01	9.928361e-01	9.905024e-01	9.890751e-01	9.883875e-01	9.881356e-01	9.880354e-01	9.881359e-01	9.886737e-01	9.895658e-01	9.905564e-01	9.914030e-01	9.919425e-01	9.920981e-01	9.918585e-01	9.912535e-01	9.903762e-01	9.893989e-01	9.885589e-01	9.880795e-01	9.879817e-01	9.880223e-01	9.882355e-01	9.889354e-01	9.904369e-01	9.929803e-01	9.968406e-01	1.002584e+00	1.010762e+00	1.020445e+00	1.029156e+00	1.035138e+00	1.037501e+00	1.038190e+00	9.992894e-01	9.993072e-01	9.992889e-01	9.992839e-01	9.992797e-01	9.992763e-01	9.992746e-01	9.992731e-01	9.992717e-01	9.992717e-01	9.992715e-01	9.992705e-01	9.992682e-01	9.992650e-01	9.992617e-01	9.992584e-01	9.992539e-01	9.992555e-01	9.992538e-01	9.992527e-01	9.992496e-01	9.992412e-01	9.992320e-01	9.992208e-01	9.992122e-01	9.992064e-01	9.992024e-01	9.991975e-01	9.991918e-01	9.991846e-01	9.991764e-01	9.991678e-01	9.991594e-01	9.991515e-01	9.991443e-01	9.991380e-01	9.991318e-01	9.991248e-01	9.991157e-01	9.991040e-01	9.990894e-01	9.990725e-01	9.990543e-01	9.990359e-01	9.990178e-01	9.989995e-01	9.989789e-01	9.989602e-01	9.989448e-01	9.989302e-01	9.989195e-01	9.989320e-01	9.990659e-01	9.996955e-01	1.001704e+00	1.005840e+00	1.011100e+00	1.015361e+00	1.017608e+00	1.018300e+00	1.018315e+00	1.017924e+00	1.016205e+00	1.012855e+00	1.008680e+00	1.004304e+00	1.000031e+00	9.961428e-01	9.929355e-01	9.905965e-01	9.891541e-01	9.884501e-01	9.881882e-01	9.880791e-01	9.881294e-01	9.886271e-01	9.895276e-01	9.905186e-01	9.913496e-01	9.918799e-01	9.920347e-01	9.917981e-01	9.912042e-01	9.903404e-01	9.893579e-01	9.885122e-01	9.880793e-01	9.880254e-01	9.880728e-01	9.882973e-01	9.890126e-01	9.905204e-01	9.930529e-01	9.968879e-01	1.002626e+00	1.010808e+00	1.020487e+00	1.029225e+00	1.035125e+00	1.037273e+00	1.037900e+00	9.992881e-01	9.993054e-01	9.992886e-01	9.992850e-01	9.992809e-01	9.992775e-01	9.992747e-01	9.992726e-01	9.992717e-01	9.992700e-01	9.992684e-01	9.992663e-01	9.992637e-01	9.992610e-01	9.992581e-01	9.992554e-01	9.992529e-01	9.992552e-01	9.992549e-01	9.992544e-01	9.992514e-01	9.992424e-01	9.992323e-01	9.992207e-01	9.992114e-01	9.992047e-01	9.991997e-01	9.991943e-01	9.991880e-01	9.991807e-01	9.991728e-01	9.991644e-01	9.991563e-01	9.991483e-01	9.991413e-01	9.991353e-01	9.991297e-01	9.991231e-01	9.991147e-01	9.991033e-01	9.990890e-01	9.990725e-01	9.990548e-01	9.990366e-01	9.990184e-01	9.990001e-01	9.989794e-01	9.989604e-01	9.989445e-01	9.989294e-01	9.989175e-01	9.989274e-01	9.990550e-01	9.996745e-01	1.001684e+00	1.005833e+00	1.011073e+00	1.015249e+00	1.017431e+00	1.018112e+00	1.018139e+00	1.017804e+00	1.016255e+00	1.012982e+00	1.008756e+00	1.004381e+00	1.000152e+00	9.962968e-01	9.930881e-01	9.907296e-01	9.892613e-01	9.885297e-01	9.882481e-01	9.881308e-01	9.881397e-01	9.885657e-01	9.894457e-01	9.904473e-01	9.912719e-01	9.917884e-01	9.919390e-01	9.917093e-01	9.911288e-01	9.902675e-01	9.892737e-01	9.884578e-01	9.880982e-01	9.880755e-01	9.881296e-01	9.883758e-01	9.891181e-01	9.906490e-01	9.931951e-01	9.970226e-01	1.002729e+00	1.010878e+00	1.020543e+00	1.029249e+00	1.034957e+00	1.036958e+00	1.037538e+00	9.992832e-01	9.992990e-01	9.992842e-01	9.992813e-01	9.992775e-01	9.992748e-01	9.992728e-01	9.992704e-01	9.992689e-01	9.992676e-01	9.992653e-01	9.992625e-01	9.992594e-01	9.992567e-01	9.992545e-01	9.992530e-01	9.992512e-01	9.992541e-01	9.992537e-01	9.992524e-01	9.992493e-01	9.992406e-01	9.992316e-01	9.992199e-01	9.992105e-01	9.992039e-01	9.991979e-01	9.991919e-01	9.991855e-01	9.991786e-01	9.991711e-01	9.991630e-01	9.991542e-01	9.991458e-01	9.991383e-01	9.991322e-01	9.991263e-01	9.991197e-01	9.991109e-01	9.990995e-01	9.990855e-01	9.990692e-01	9.990515e-01	9.990331e-01	9.990144e-01	9.989959e-01	9.989750e-01	9.989554e-01	9.989392e-01	9.989238e-01	9.989112e-01	9.989206e-01	9.990477e-01	9.996668e-01	1.001675e+00	1.005803e+00	1.010990e+00	1.015086e+00	1.017215e+00	1.017887e+00	1.017922e+00	1.017643e+00	1.016239e+00	1.013116e+00	1.008904e+00	1.004506e+00	1.000310e+00	9.964993e-01	9.932921e-01	9.909016e-01	9.893918e-01	9.886235e-01	9.883149e-01	9.881871e-01	9.881606e-01	9.885015e-01	9.893230e-01	9.903279e-01	9.911635e-01	9.916737e-01	9.918197e-01	9.915959e-01	9.910205e-01	9.901464e-01	9.891549e-01	9.884066e-01	9.881264e-01	9.881294e-01	9.881928e-01	9.884663e-01	9.892470e-01	9.908210e-01	9.933994e-01	9.972292e-01	1.002890e+00	1.010982e+00	1.020617e+00	1.029219e+00	1.034699e+00	1.036560e+00	1.037096e+00	9.992764e-01	9.992914e-01	9.992777e-01	9.992754e-01	9.992720e-01	9.992697e-01	9.992684e-01	9.992671e-01	9.992662e-01	9.992653e-01	9.992634e-01	9.992605e-01	9.992568e-01	9.992535e-01	9.992512e-01	9.992502e-01	9.992491e-01	9.992509e-01	9.992496e-01	9.992474e-01	9.992437e-01	9.992358e-01	9.992276e-01	9.992173e-01	9.992082e-01	9.992014e-01	9.991953e-01	9.991895e-01	9.991838e-01	9.991776e-01	9.991706e-01	9.991615e-01	9.991517e-01	9.991425e-01	9.991343e-01	9.991276e-01	9.991212e-01	9.991141e-01	9.991052e-01	9.990940e-01	9.990803e-01	9.990641e-01	9.990463e-01	9.990275e-01	9.990085e-01	9.989896e-01	9.989687e-01	9.989490e-01	9.989322e-01	9.989163e-01	9.989042e-01	9.989151e-01	9.990464e-01	9.996723e-01	1.001673e+00	1.005751e+00	1.010854e+00	1.014884e+00	1.016979e+00	1.017643e+00	1.017681e+00	1.017440e+00	1.016173e+00	1.013233e+00	1.009101e+00	1.004685e+00	1.000507e+00	9.967410e-01	9.935521e-01	9.911336e-01	9.895670e-01	9.887405e-01	9.883973e-01	9.882536e-01	9.881948e-01	9.884472e-01	9.891822e-01	9.901703e-01	9.910230e-01	9.915389e-01	9.916830e-01	9.914621e-01	9.908788e-01	9.899886e-01	9.890261e-01	9.883685e-01	9.881646e-01	9.881899e-01	9.882707e-01	9.885821e-01	9.894211e-01	9.910546e-01	9.936678e-01	9.974943e-01	1.003121e+00	1.011160e+00	1.020701e+00	1.029116e+00	1.034373e+00	1.036099e+00	1.036604e+00	9.992674e-01	9.992814e-01	9.992701e-01	9.992690e-01	9.992661e-01	9.992640e-01	9.992628e-01	9.992627e-01	9.992627e-01	9.992631e-01	9.992623e-01	9.992600e-01	9.992563e-01	9.992526e-01	9.992496e-01	9.992476e-01	9.992466e-01	9.992449e-01	9.992456e-01	9.992416e-01	9.992374e-01	9.992302e-01	9.992218e-01	9.992122e-01	9.992042e-01	9.991979e-01	9.991927e-01	9.991880e-01	9.991830e-01	9.991768e-01	9.991684e-01	9.991587e-01	9.991483e-01	9.991386e-01	9.991301e-01	9.991227e-01	9.991157e-01	9.991081e-01	9.990990e-01	9.990878e-01	9.990740e-01	9.990578e-01	9.990398e-01	9.990210e-01	9.990019e-01	9.989823e-01	9.989615e-01	9.989419e-01	9.989248e-01	9.989087e-01	9.988974e-01	9.989118e-01	9.990528e-01	9.996934e-01	1.001680e+00	1.005675e+00	1.010671e+00	1.014641e+00	1.016723e+00	1.017390e+00	1.017432e+00	1.017215e+00	1.016079e+00	1.013336e+00	1.009325e+00	1.004927e+00	1.000742e+00	9.970010e-01	9.938387e-01	9.914050e-01	9.897813e-01	9.888868e-01	9.884942e-01	9.883302e-01	9.882409e-01	9.884018e-01	9.890307e-01	9.899725e-01	9.908324e-01	9.913655e-01	9.915169e-01	9.912889e-01	9.906897e-01	9.897993e-01	9.888938e-01	9.883407e-01	9.882117e-01	9.882579e-01	9.883628e-01	9.887270e-01	9.896351e-01	9.913291e-01	9.939703e-01	9.977945e-01	1.003404e+00	1.011377e+00	1.020760e+00	1.028945e+00	1.033978e+00	1.035603e+00	1.036090e+00	9.992598e-01	9.992733e-01	9.992640e-01	9.992637e-01	9.992614e-01	9.992598e-01	9.992592e-01	9.992595e-01	9.992603e-01	9.992608e-01	9.992608e-01	9.992592e-01	9.992563e-01	9.992525e-01	9.992489e-01	9.992458e-01	9.992429e-01	9.992404e-01	9.992378e-01	9.992366e-01	9.992323e-01	9.992246e-01	9.992161e-01	9.992064e-01	9.992013e-01	9.991955e-01	9.991911e-01	9.991867e-01	9.991816e-01	9.991746e-01	9.991658e-01	9.991555e-01	9.991454e-01	9.991362e-01	9.991273e-01	9.991195e-01	9.991119e-01	9.991037e-01	9.990941e-01	9.990825e-01	9.990684e-01	9.990520e-01	9.990341e-01	9.990153e-01	9.989960e-01	9.989758e-01	9.989548e-01	9.989350e-01	9.989180e-01	9.989020e-01	9.988909e-01	9.989101e-01	9.990658e-01	9.997282e-01	1.001701e+00	1.005584e+00	1.010438e+00	1.014347e+00	1.016436e+00	1.017124e+00	1.017173e+00	1.016979e+00	1.015970e+00	1.013431e+00	1.009565e+00	1.005208e+00	1.001017e+00	9.972830e-01	9.941368e-01	9.916931e-01	9.900201e-01	9.890574e-01	9.886084e-01	9.884232e-01	9.883067e-01	9.883721e-01	9.888752e-01	9.897448e-01	9.906027e-01	9.911560e-01	9.913168e-01	9.910807e-01	9.904643e-01	9.895851e-01	9.887620e-01	9.883286e-01	9.882763e-01	9.883399e-01	9.884720e-01	9.888946e-01	9.898736e-01	9.916236e-01	9.942938e-01	9.981339e-01	1.003739e+00	1.011614e+00	1.020781e+00	1.028719e+00	1.033532e+00	1.035079e+00	1.035557e+00	9.992569e-01	9.992683e-01	9.992604e-01	9.992609e-01	9.992591e-01	9.992581e-01	9.992580e-01	9.992586e-01	9.992591e-01	9.992592e-01	9.992589e-01	9.992582e-01	9.992554e-01	9.992517e-01	9.992473e-01	9.992431e-01	9.992392e-01	9.992367e-01	9.992336e-01	9.992304e-01	9.992270e-01	9.992200e-01	9.992135e-01	9.992069e-01	9.991992e-01	9.991941e-01	9.991898e-01	9.991855e-01	9.991800e-01	9.991724e-01	9.991630e-01	9.991532e-01	9.991438e-01	9.991349e-01	9.991262e-01	9.991180e-01	9.991098e-01	9.991009e-01	9.990906e-01	9.990785e-01	9.990641e-01	9.990478e-01	9.990302e-01	9.990118e-01	9.989925e-01	9.989719e-01	9.989504e-01	9.989304e-01	9.989135e-01	9.988981e-01	9.988871e-01	9.989116e-01	9.990863e-01	9.997754e-01	1.001730e+00	1.005483e+00	1.010164e+00	1.013999e+00	1.016107e+00	1.016832e+00	1.016897e+00	1.016731e+00	1.015853e+00	1.013527e+00	1.009827e+00	1.005535e+00	1.001347e+00	9.976070e-01	9.944620e-01	9.920050e-01	9.902865e-01	9.892561e-01	9.887473e-01	9.885297e-01	9.883982e-01	9.883739e-01	9.887305e-01	9.895008e-01	9.903398e-01	9.909087e-01	9.910794e-01	9.908359e-01	9.902089e-01	9.893594e-01	9.886444e-01	9.883467e-01	9.883625e-01	9.884379e-01	9.886034e-01	9.890893e-01	9.901395e-01	9.919448e-01	9.946534e-01	9.985304e-01	1.004139e+00	1.011883e+00	1.020779e+00	1.028428e+00	1.033029e+00	1.034518e+00	1.034996e+00	9.992560e-01	9.992673e-01	9.992592e-01	9.992601e-01	9.992585e-01	9.992579e-01	9.992581e-01	9.992587e-01	9.992592e-01	9.992584e-01	9.992567e-01	9.992562e-01	9.992541e-01	9.992503e-01	9.992457e-01	9.992409e-01	9.992365e-01	9.992340e-01	9.992326e-01	9.992310e-01	9.992275e-01	9.992218e-01	9.992151e-01	9.992059e-01	9.991990e-01	9.991937e-01	9.991891e-01	9.991842e-01	9.991781e-01	9.991704e-01	9.991616e-01	9.991524e-01	9.991435e-01	9.991351e-01	9.991263e-01	9.991178e-01	9.991089e-01	9.990993e-01	9.990883e-01	9.990756e-01	9.990612e-01	9.990451e-01	9.990281e-01	9.990101e-01	9.989909e-01	9.989701e-01	9.989483e-01	9.989282e-01	9.989116e-01	9.988967e-01	9.988869e-01	9.989174e-01	9.991132e-01	9.998346e-01	1.001771e+00	1.005380e+00	1.009863e+00	1.013604e+00	1.015732e+00	1.016506e+00	1.016594e+00	1.016461e+00	1.015719e+00	1.013621e+00	1.010113e+00	1.005911e+00	1.001740e+00	9.979941e-01	9.948414e-01	9.923632e-01	9.905941e-01	9.894909e-01	9.889128e-01	9.886510e-01	9.885014e-01	9.884103e-01	9.886145e-01	9.892544e-01	9.900566e-01	9.906375e-01	9.908182e-01	9.905676e-01	9.899344e-01	9.891345e-01	9.885561e-01	9.883948e-01	9.884592e-01	9.885499e-01	9.887627e-01	9.893213e-01	9.904479e-01	9.923150e-01	9.950737e-01	9.990010e-01	1.004611e+00	1.012196e+00	1.020772e+00	1.028087e+00	1.032461e+00	1.033901e+00	1.034384e+00	9.992571e-01	9.992685e-01	9.992593e-01	9.992604e-01	9.992587e-01	9.992581e-01	9.992584e-01	9.992590e-01	9.992587e-01	9.992581e-01	9.992564e-01	9.992538e-01	9.992524e-01	9.992494e-01	9.992450e-01	9.992400e-01	9.992354e-01	9.992326e-01	9.992304e-01	9.992282e-01	9.992249e-01	9.992199e-01	9.992138e-01	9.992065e-01	9.992000e-01	9.991947e-01	9.991895e-01	9.991838e-01	9.991771e-01	9.991697e-01	9.991609e-01	9.991522e-01	9.991434e-01	9.991353e-01	9.991265e-01	9.991178e-01	9.991085e-01	9.990982e-01	9.990865e-01	9.990734e-01	9.990588e-01	9.990430e-01	9.990264e-01	9.990089e-01	9.989897e-01	9.989685e-01	9.989465e-01	9.989266e-01	9.989104e-01	9.988961e-01	9.988877e-01	9.989258e-01	9.991460e-01	9.999036e-01	1.001821e+00	1.005275e+00	1.009544e+00	1.013171e+00	1.015311e+00	1.016139e+00	1.016264e+00	1.016161e+00	1.015557e+00	1.013700e+00	1.010412e+00	1.006327e+00	1.002193e+00	9.984524e-01	9.952905e-01	9.927822e-01	9.909513e-01	9.897636e-01	9.891035e-01	9.887864e-01	9.886113e-01	9.884703e-01	9.885313e-01	9.890117e-01	9.897517e-01	9.903398e-01	9.905306e-01	9.902724e-01	9.896394e-01	9.889165e-01	9.884988e-01	9.884618e-01	9.885627e-01	9.886779e-01	9.889504e-01	9.895939e-01	9.908085e-01	9.927481e-01	9.955675e-01	9.995487e-01	1.005149e+00	1.012548e+00	1.020763e+00	1.027693e+00	1.031816e+00	1.033211e+00	1.033707e+00	9.992580e-01	9.992695e-01	9.992591e-01	9.992604e-01	9.992582e-01	9.992573e-01	9.992573e-01	9.992579e-01	9.992576e-01	9.992563e-01	9.992549e-01	9.992529e-01	9.992497e-01	9.992477e-01	9.992441e-01	9.992394e-01	9.992352e-01	9.992321e-01	9.992294e-01	9.992264e-01	9.992227e-01	9.992184e-01	9.992132e-01	9.992069e-01	9.992010e-01	9.991956e-01	9.991903e-01	9.991845e-01	9.991769e-01	9.991683e-01	9.991592e-01	9.991507e-01	9.991423e-01	9.991340e-01	9.991256e-01	9.991169e-01	9.991074e-01	9.990967e-01	9.990845e-01	9.990709e-01	9.990562e-01	9.990405e-01	9.990243e-01	9.990070e-01	9.989877e-01	9.989662e-01	9.989439e-01	9.989242e-01	9.989084e-01	9.988946e-01	9.988873e-01	9.989351e-01	9.991834e-01	9.999789e-01	1.001876e+00	1.005170e+00	1.009212e+00	1.012709e+00	1.014851e+00	1.015733e+00	1.015900e+00	1.015824e+00	1.015351e+00	1.013742e+00	1.010699e+00	1.006762e+00	1.002691e+00	9.989705e-01	9.958031e-01	9.932580e-01	9.913552e-01	9.900707e-01	9.893142e-01	9.889259e-01	9.887175e-01	9.885400e-01	9.884765e-01	9.887731e-01	9.894134e-01	9.899956e-01	9.901947e-01	9.899298e-01	9.893140e-01	9.887088e-01	9.884691e-01	9.885371e-01	9.886622e-01	9.888145e-01	9.891610e-01	9.899040e-01	9.912178e-01	9.932399e-01	9.961271e-01	1.000160e+00	1.005733e+00	1.012919e+00	1.020732e+00	1.027235e+00	1.031086e+00	1.032449e+00	1.032961e+00	9.992572e-01	9.992690e-01	9.992576e-01	9.992594e-01	9.992568e-01	9.992554e-01	9.992548e-01	9.992552e-01	9.992550e-01	9.992537e-01	9.992521e-01	9.992506e-01	9.992483e-01	9.992451e-01	9.992421e-01	9.992388e-01	9.992345e-01	9.992311e-01	9.992273e-01	9.992231e-01	9.992186e-01	9.992148e-01	9.992107e-01	9.992056e-01	9.992002e-01	9.991957e-01	9.991893e-01	9.991819e-01	9.991739e-01	9.991652e-01	9.991566e-01	9.991479e-01	9.991393e-01	9.991314e-01	9.991232e-01	9.991146e-01	9.991050e-01	9.990940e-01	9.990814e-01	9.990674e-01	9.990524e-01	9.990368e-01	9.990208e-01	9.990037e-01	9.989844e-01	9.989625e-01	9.989400e-01	9.989205e-01	9.989046e-01	9.988904e-01	9.988854e-01	9.989456e-01	9.992245e-01	1.000058e+00	1.001933e+00	1.005065e+00	1.008873e+00	1.012225e+00	1.014358e+00	1.015293e+00	1.015505e+00	1.015453e+00	1.015093e+00	1.013729e+00	1.010955e+00	1.007194e+00	1.003213e+00	9.995309e-01	9.963633e-01	9.937789e-01	9.917990e-01	9.904115e-01	9.895464e-01	9.890707e-01	9.888127e-01	9.886087e-01	9.884434e-01	9.885448e-01	9.890317e-01	9.895804e-01	9.897835e-01	9.895177e-01	9.889531e-01	9.885170e-01	9.884622e-01	9.886095e-01	9.887555e-01	9.889590e-01	9.893966e-01	9.902482e-01	9.916667e-01	9.937778e-01	9.967375e-01	1.000816e+00	1.006344e+00	1.013284e+00	1.020654e+00	1.026701e+00	1.030279e+00	1.031617e+00	1.032152e+00	9.992545e-01	9.992670e-01	9.992547e-01	9.992574e-01	9.992544e-01	9.992526e-01	9.992514e-01	9.992515e-01	9.992513e-01	9.992500e-01	9.992482e-01	9.992470e-01	9.992452e-01	9.992426e-01	9.992387e-01	9.992364e-01	9.992328e-01	9.992287e-01	9.992241e-01	9.992186e-01	9.992131e-01	9.992095e-01	9.992063e-01	9.992021e-01	9.991981e-01	9.991921e-01	9.991856e-01	9.991781e-01	9.991701e-01	9.991620e-01	9.991530e-01	9.991443e-01	9.991359e-01	9.991281e-01	9.991199e-01	9.991113e-01	9.991016e-01	9.990902e-01	9.990770e-01	9.990624e-01	9.990471e-01	9.990316e-01	9.990157e-01	9.989989e-01	9.989797e-01	9.989574e-01	9.989351e-01	9.989155e-01	9.988987e-01	9.988838e-01	9.988840e-01	9.989579e-01	9.992680e-01	1.000140e+00	1.001992e+00	1.004962e+00	1.008530e+00	1.011725e+00	1.013840e+00	1.014826e+00	1.015081e+00	1.015051e+00	1.014782e+00	1.013652e+00	1.011160e+00	1.007609e+00	1.003748e+00	1.000121e+00	9.969612e-01	9.943405e-01	9.922832e-01	9.907904e-01	9.898110e-01	9.892311e-01	9.889044e-01	9.886681e-01	9.884279e-01	9.883360e-01	9.886149e-01	9.890828e-01	9.892801e-01	9.890287e-01	9.885702e-01	9.883551e-01	9.884707e-01	9.886723e-01	9.888489e-01	9.891238e-01	9.896645e-01	9.906286e-01	9.921541e-01	9.943568e-01	9.973897e-01	1.001507e+00	1.006967e+00	1.013630e+00	1.020519e+00	1.026090e+00	1.029399e+00	1.030730e+00	1.031293e+00	9.992518e-01	9.992642e-01	9.992509e-01	9.992547e-01	9.992518e-01	9.992499e-01	9.992482e-01	9.992476e-01	9.992473e-01	9.992457e-01	9.992439e-01	9.992424e-01	9.992410e-01	9.992396e-01	9.992370e-01	9.992331e-01	9.992307e-01	9.992259e-01	9.992199