# vtk DataFile Version 3.0
vtk output
ASCII
DATASET STRUCTURED_GRID
DIMENSIONS 101 101 1
POINTS 10201 double
0.000000e+00	0.000000e+00	0.0	1.000000e-02	0.000000e+00	0.0	2.000000e-02	0.000000e+00	0.0	3.000000e-02	0.000000e+00	0.0	4.000000e-02	0.000000e+00	0.0	5.000000e-02	0.000000e+00	0.0	6.000000e-02	0.000000e+00	0.0	7.000000e-02	0.000000e+00	0.0	8.000000e-02	0.000000e+00	0.0	9.000000e-02	0.000000e+00	0.0	1.000000e-01	0.000000e+00	0.0	1.100000e-01	0.000000e+00	0.0	1.200000e-01	0.000000e+00	0.0	1.300000e-01	0.000000e+00	0.0	1.400000e-01	0.000000e+00	0.0	1.500000e-01	0.000000e+00	0.0	1.600000e-01	0.000000e+00	0.0	1.700000e-01	0.000000e+00	0.0	1.800000e-01	0.000000e+00	0.0	1.900000e-01	0.000000e+00	0.0	2.000000e-01	0.000000e+00	0.0	2.100000e-01	0.000000e+00	0.0	2.200000e-01	0.000000e+00	0.0	2.300000e-01	0.000000e+00	0.0	2.400000e-01	0.000000e+00	0.0	2.500000e-01	0.000000e+00	0.0	2.600000e-01	0.000000e+00	0.0	2.700000e-01	0.000000e+00	0.0	2.800000e-01	0.000000e+00	0.0	2.900000e-01	0.000000e+00	0.0	3.000000e-01	0.000000e+00	0.0	3.100000e-01	0.000000e+00	0.0	3.200000e-01	0.000000e+00	0.0	3.300000e-01	0.000000e+00	0.0	3.400000e-01	0.000000e+00	0.0	3.500000e-01	0.000000e+00	0.0	3.600000e-01	0.000000e+00	0.0	3.700000e-01	0.000000e+00	0.0	3.800000e-01	0.000000e+00	0.0	3.900000e-01	0.000000e+00	0.0	4.000000e-01	0.000000e+00	0.0	4.100000e-01	0.000000e+00	0.0	4.200000e-01	0.000000e+00	0.0	4.300000e-01	0.000000e+00	0.0	4.400000e-01	0.000000e+00	0.0	4.500000e-01	0.000000e+00	0.0	4.600000e-01	0.000000e+00	0.0	4.700000e-01	0.000000e+00	0.0	4.800000e-01	0.000000e+00	0.0	4.900000e-01	0.000000e+00	0.0	5.000000e-01	0.000000e+00	0.0	5.100000e-01	0.000000e+00	0.0	5.200000e-01	0.000000e+00	0.0	5.300000e-01	0.000000e+00	0.0	5.400000e-01	0.000000e+00	0.0	5.500000e-01	0.000000e+00	0.0	5.600000e-01	0.000000e+00	0.0	5.700000e-01	0.000000e+00	0.0	5.800000e-01	0.000000e+00	0.0	5.900000e-01	0.000000e+00	0.0	6.000000e-01	0.000000e+00	0.0	6.100000e-01	0.000000e+00	0.0	6.200000e-01	0.000000e+00	0.0	6.300000e-01	0.000000e+00	0.0	6.400000e-01	0.000000e+00	0.0	6.500000e-01	0.000000e+00	0.0	6.600000e-01	0.000000e+00	0.0	6.700000e-01	0.000000e+00	0.0	6.800000e-01	0.000000e+00	0.0	6.900000e-01	0.000000e+00	0.0	7.000000e-01	0.000000e+00	0.0	7.100000e-01	0.000000e+00	0.0	7.200000e-01	0.000000e+00	0.0	7.300000e-01	0.000000e+00	0.0	7.400000e-01	0.000000e+00	0.0	7.500000e-01	0.000000e+00	0.0	7.600000e-01	0.000000e+00	0.0	7.700000e-01	0.000000e+00	0.0	7.800000e-01	0.000000e+00	0.0	7.900000e-01	0.000000e+00	0.0	8.000000e-01	0.000000e+00	0.0	8.100000e-01	0.000000e+00	0.0	8.200000e-01	0.000000e+00	0.0	8.300000e-01	0.000000e+00	0.0	8.400000e-01	0.000000e+00	0.0	8.500000e-01	0.000000e+00	0.0	8.600000e-01	0.000000e+00	0.0	8.700000e-01	0.000000e+00	0.0	8.800000e-01	0.000000e+00	0.0	8.900000e-01	0.000000e+00	0.0	9.000000e-01	0.000000e+00	0.0	9.100000e-01	0.000000e+00	0.0	9.200000e-01	0.000000e+00	0.0	9.300000e-01	0.000000e+00	0.0	9.400000e-01	0.000000e+00	0.0	9.500000e-01	0.000000e+00	0.0	9.600000e-01	0.000000e+00	0.0	9.700000e-01	0.000000e+00	0.0	9.800000e-01	0.000000e+00	0.0	9.900000e-01	0.000000e+00	0.0	1.000000e+00	0.000000e+00	0.0	0.000000e+00	1.000000e-02	0.0	1.000000e-02	1.000000e-02	0.0	2.000000e-02	1.000000e-02	0.0	3.000000e-02	1.000000e-02	0.0	4.000000e-02	1.000000e-02	0.0	5.000000e-02	1.000000e-02	0.0	6.000000e-02	1.000000e-02	0.0	7.000000e-02	1.000000e-02	0.0	8.000000e-02	1.000000e-02	0.0	9.000000e-02	1.000000e-02	0.0	1.000000e-01	1.000000e-02	0.0	1.100000e-01	1.000000e-02	0.0	1.200000e-01	1.000000e-02	0.0	1.300000e-01	1.000000e-02	0.0	1.400000e-01	1.000000e-02	0.0	1.500000e-01	1.000000e-02	0.0	1.600000e-01	1.000000e-02	0.0	1.700000e-01	1.000000e-02	0.0	1.800000e-01	1.000000e-02	0.0	1.900000e-01	1.000000e-02	0.0	2.000000e-01	1.000000e-02	0.0	2.100000e-01	1.000000e-02	0.0	2.200000e-01	1.000000e-02	0.0	2.300000e-01	1.000000e-02	0.0	2.400000e-01	1.000000e-02	0.0	2.500000e-01	1.000000e-02	0.0	2.600000e-01	1.000000e-02	0.0	2.700000e-01	1.000000e-02	0.0	2.800000e-01	1.000000e-02	0.0	2.900000e-01	1.000000e-02	0.0	3.000000e-01	1.000000e-02	0.0	3.100000e-01	1.000000e-02	0.0	3.200000e-01	1.000000e-02	0.0	3.300000e-01	1.000000e-02	0.0	3.400000e-01	1.000000e-02	0.0	3.500000e-01	1.000000e-02	0.0	3.600000e-01	1.000000e-02	0.0	3.700000e-01	1.000000e-02	0.0	3.800000e-01	1.000000e-02	0.0	3.900000e-01	1.000000e-02	0.0	4.000000e-01	1.000000e-02	0.0	4.100000e-01	1.000000e-02	0.0	4.200000e-01	1.000000e-02	0.0	4.300000e-01	1.000000e-02	0.0	4.400000e-01	1.000000e-02	0.0	4.500000e-01	1.000000e-02	0.0	4.600000e-01	1.000000e-02	0.0	4.700000e-01	1.000000e-02	0.0	4.800000e-01	1.000000e-02	0.0	4.900000e-01	1.000000e-02	0.0	5.000000e-01	1.000000e-02	0.0	5.100000e-01	1.000000e-02	0.0	5.200000e-01	1.000000e-02	0.0	5.300000e-01	1.000000e-02	0.0	5.400000e-01	1.000000e-02	0.0	5.500000e-01	1.000000e-02	0.0	5.600000e-01	1.000000e-02	0.0	5.700000e-01	1.000000e-02	0.0	5.800000e-01	1.000000e-02	0.0	5.900000e-01	1.000000e-02	0.0	6.000000e-01	1.000000e-02	0.0	6.100000e-01	1.000000e-02	0.0	6.200000e-01	1.000000e-02	0.0	6.300000e-01	1.000000e-02	0.0	6.400000e-01	1.000000e-02	0.0	6.500000e-01	1.000000e-02	0.0	6.600000e-01	1.000000e-02	0.0	6.700000e-01	1.000000e-02	0.0	6.800000e-01	1.000000e-02	0.0	6.900000e-01	1.000000e-02	0.0	7.000000e-01	1.000000e-02	0.0	7.100000e-01	1.000000e-02	0.0	7.200000e-01	1.000000e-02	0.0	7.300000e-01	1.000000e-02	0.0	7.400000e-01	1.000000e-02	0.0	7.500000e-01	1.000000e-02	0.0	7.600000e-01	1.000000e-02	0.0	7.700000e-01	1.000000e-02	0.0	7.800000e-01	1.000000e-02	0.0	7.900000e-01	1.000000e-02	0.0	8.000000e-01	1.000000e-02	0.0	8.100000e-01	1.000000e-02	0.0	8.200000e-01	1.000000e-02	0.0	8.300000e-01	1.000000e-02	0.0	8.400000e-01	1.000000e-02	0.0	8.500000e-01	1.000000e-02	0.0	8.600000e-01	1.000000e-02	0.0	8.700000e-01	1.000000e-02	0.0	8.800000e-01	1.000000e-02	0.0	8.900000e-01	1.000000e-02	0.0	9.000000e-01	1.000000e-02	0.0	9.100000e-01	1.000000e-02	0.0	9.200000e-01	1.000000e-02	0.0	9.300000e-01	1.000000e-02	0.0	9.400000e-01	1.000000e-02	0.0	9.500000e-01	1.000000e-02	0.0	9.600000e-01	1.000000e-02	0.0	9.700000e-01	1.000000e-02	0.0	9.800000e-01	1.000000e-02	0.0	9.900000e-01	1.000000e-02	0.0	1.000000e+00	1.000000e-02	0.0	0.000000e+00	2.000000e-02	0.0	1.000000e-02	2.000000e-02	0.0	2.000000e-02	2.000000e-02	0.0	3.000000e-02	2.000000e-02	0.0	4.000000e-02	2.000000e-02	0.0	5.000000e-02	2.000000e-02	0.0	6.000000e-02	2.000000e-02	0.0	7.000000e-02	2.000000e-02	0.0	8.000000e-02	2.000000e-02	0.0	9.000000e-02	2.000000e-02	0.0	1.000000e-01	2.000000e-02	0.0	1.100000e-01	2.000000e-02	0.0	1.200000e-01	2.000000e-02	0.0	1.300000e-01	2.000000e-02	0.0	1.400000e-01	2.000000e-02	0.0	1.500000e-01	2.000000e-02	0.0	1.600000e-01	2.000000e-02	0.0	1.700000e-01	2.000000e-02	0.0	1.800000e-01	2.000000e-02	0.0	1.900000e-01	2.000000e-02	0.0	2.000000e-01	2.000000e-02	0.0	2.100000e-01	2.000000e-02	0.0	2.200000e-01	2.000000e-02	0.0	2.300000e-01	2.000000e-02	0.0	2.400000e-01	2.000000e-02	0.0	2.500000e-01	2.000000e-02	0.0	2.600000e-01	2.000000e-02	0.0	2.700000e-01	2.000000e-02	0.0	2.800000e-01	2.000000e-02	0.0	2.900000e-01	2.000000e-02	0.0	3.000000e-01	2.000000e-02	0.0	3.100000e-01	2.000000e-02	0.0	3.200000e-01	2.000000e-02	0.0	3.300000e-01	2.000000e-02	0.0	3.400000e-01	2.000000e-02	0.0	3.500000e-01	2.000000e-02	0.0	3.600000e-01	2.000000e-02	0.0	3.700000e-01	2.000000e-02	0.0	3.800000e-01	2.000000e-02	0.0	3.900000e-01	2.000000e-02	0.0	4.000000e-01	2.000000e-02	0.0	4.100000e-01	2.000000e-02	0.0	4.200000e-01	2.000000e-02	0.0	4.300000e-01	2.000000e-02	0.0	4.400000e-01	2.000000e-02	0.0	4.500000e-01	2.000000e-02	0.0	4.600000e-01	2.000000e-02	0.0	4.700000e-01	2.000000e-02	0.0	4.800000e-01	2.000000e-02	0.0	4.900000e-01	2.000000e-02	0.0	5.000000e-01	2.000000e-02	0.0	5.100000e-01	2.000000e-02	0.0	5.200000e-01	2.000000e-02	0.0	5.300000e-01	2.000000e-02	0.0	5.400000e-01	2.000000e-02	0.0	5.500000e-01	2.000000e-02	0.0	5.600000e-01	2.000000e-02	0.0	5.700000e-01	2.000000e-02	0.0	5.800000e-01	2.000000e-02	0.0	5.900000e-01	2.000000e-02	0.0	6.000000e-01	2.000000e-02	0.0	6.100000e-01	2.000000e-02	0.0	6.200000e-01	2.000000e-02	0.0	6.300000e-01	2.000000e-02	0.0	6.400000e-01	2.000000e-02	0.0	6.500000e-01	2.000000e-02	0.0	6.600000e-01	2.000000e-02	0.0	6.700000e-01	2.000000e-02	0.0	6.800000e-01	2.000000e-02	0.0	6.900000e-01	2.000000e-02	0.0	7.000000e-01	2.000000e-02	0.0	7.100000e-01	2.000000e-02	0.0	7.200000e-01	2.000000e-02	0.0	7.300000e-01	2.000000e-02	0.0	7.400000e-01	2.000000e-02	0.0	7.500000e-01	2.000000e-02	0.0	7.600000e-01	2.000000e-02	0.0	7.700000e-01	2.000000e-02	0.0	7.800000e-01	2.000000e-02	0.0	7.900000e-01	2.000000e-02	0.0	8.000000e-01	2.000000e-02	0.0	8.100000e-01	2.000000e-02	0.0	8.200000e-01	2.000000e-02	0.0	8.300000e-01	2.000000e-02	0.0	8.400000e-01	2.000000e-02	0.0	8.500000e-01	2.000000e-02	0.0	8.600000e-01	2.000000e-02	0.0	8.700000e-01	2.000000e-02	0.0	8.800000e-01	2.000000e-02	0.0	8.900000e-01	2.000000e-02	0.0	9.000000e-01	2.000000e-02	0.0	9.100000e-01	2.000000e-02	0.0	9.200000e-01	2.000000e-02	0.0	9.300000e-01	2.000000e-02	0.0	9.400000e-01	2.000000e-02	0.0	9.500000e-01	2.000000e-02	0.0	9.600000e-01	2.000000e-02	0.0	9.700000e-01	2.000000e-02	0.0	9.800000e-01	2.000000e-02	0.0	9.900000e-01	2.000000e-02	0.0	1.000000e+00	2.000000e-02	0.0	0.000000e+00	3.000000e-02	0.0	1.000000e-02	3.000000e-02	0.0	2.000000e-02	3.000000e-02	0.0	3.000000e-02	3.000000e-02	0.0	4.000000e-02	3.000000e-02	0.0	5.000000e-02	3.000000e-02	0.0	6.000000e-02	3.000000e-02	0.0	7.000000e-02	3.000000e-02	0.0	8.000000e-02	3.000000e-02	0.0	9.000000e-02	3.000000e-02	0.0	1.000000e-01	3.000000e-02	0.0	1.100000e-01	3.000000e-02	0.0	1.200000e-01	3.000000e-02	0.0	1.300000e-01	3.000000e-02	0.0	1.400000e-01	3.000000e-02	0.0	1.500000e-01	3.000000e-02	0.0	1.600000e-01	3.000000e-02	0.0	1.700000e-01	3.000000e-02	0.0	1.800000e-01	3.000000e-02	0.0	1.900000e-01	3.000000e-02	0.0	2.000000e-01	3.000000e-02	0.0	2.100000e-01	3.000000e-02	0.0	2.200000e-01	3.000000e-02	0.0	2.300000e-01	3.000000e-02	0.0	2.400000e-01	3.000000e-02	0.0	2.500000e-01	3.000000e-02	0.0	2.600000e-01	3.000000
[...]
POINT_DATA 10201

SCALARS Height double 1
LOOKUP_TABLE default
9.670652e-01	9.656818e-01	9.654799e-01	9.646135e-01	9.643553e-01	9.648173e-01	9.664363e-01	9.696332e-01	9.743734e-01	9.810351e-01	9.899944e-01	1.001208e+00	1.013776e+00	1.025917e+00	1.035917e+00	1.042941e+00	1.046429e+00	1.046494e+00	1.040470e+00	1.025871e+00	1.009756e+00	9.997630e-01	9.957750e-01	9.945688e-01	9.942464e-01	9.941540e-01	9.941019e-01	9.940210e-01	9.938863e-01	9.937001e-01	9.934716e-01	9.932010e-01	9.928882e-01	9.925226e-01	9.920981e-01	9.915958e-01	9.909691e-01	9.901096e-01	9.887965e-01	9.867263e-01	9.837248e-01	9.800652e-01	9.765754e-01	9.741340e-01	9.729808e-01	9.728808e-01	9.738002e-01	9.762418e-01	9.802331e-01	9.861640e-01	9.946093e-01	1.005756e+00	1.018739e+00	1.031436e+00	1.041710e+00	1.048794e+00	1.052448e+00	1.052712e+00	1.047222e+00	1.032845e+00	1.016010e+00	1.005476e+00	1.001453e+00	1.000345e+00	1.000084e+00	1.000022e+00	1.000007e+00	1.000002e+00	1.000001e+00	1.000000e+00	1.000000e+00	1.000000e+00	1.000000e+00	1.000000e+00	1.000000e+00	1.000000e+00	1.000000e+00	1.000000e+00	1.000000e+00	1.000000e+00	1.000000e+00	1.000000e+00	1.000000e+00	1.000000e+00	1.000000e+00	1.000000e+00	1.000000e+00	1.000000e+00	1.000000e+00	1.000000e+00	1.000000e+00	1.000000e+00	1.000000e+00	1.000000e+00	1.000000e+00	1.000000e+00	1.000000e+00	1.000000e+00	1.000000e+00	1.000000e+00	1.000000e+00	9.656818e-01	9.643506e-01	9.645192e-01	9.639906e-01	9.641733e-01	9.649043e-01	9.666622e-01	9.701197e-01	9.751403e-01	9.819604e-01	9.909814e-01	1.002094e+00	1.014528e+00	1.026733e+00	1.036957e+00	1.043574e+00	1.045933e+00	1.045590e+00	1.039652e+00	1.025489e+00	1.009020e+00	9.989683e-01	9.953285e-01	9.943359e-01	9.940952e-01	9.940216e-01	9.939714e-01	9.938899e-01	9.937544e-01	9.935656e-01	9.933296e-01	9.930491e-01	9.927203e-01	9.923320e-01	9.918705e-01	9.913040e-01	9.905667e-01	9.895381e-01	9.880299e-01	9.858229e-01	9.828540e-01	9.794313e-01	9.762992e-01	9.741873e-01	9.732414e-01	9.732273e-01	9.741797e-01	9.767635e-01	9.810435e-01	9.872144e-01	9.957811e-01	1.006817e+00	1.019567e+00	1.032272e+00	1.042892e+00	1.049789e+00	1.052185e+00	1.051952e+00	1.046492e+00	1.032600e+00	1.015527e+00	1.004883e+00	1.001109e+00	1.000223e+00	1.000050e+00	1.000014e+00	1.000005e+00	1.000001e+00	1.000000e+00	1.000000e+00	1.000000e+00	1.000000e+00	1.000000e+00	1.000000e+00	1.000000e+00	1.000000e+00	1.000000e+00	1.000000e+00	1.000000e+00	1.000000e+00	1.000000e+00	1.000000e+00	1.000000e+00	1.000000e+00	1.000000e+00	1.000000e+00	1.000000e+00	1.000000e+00	1.000000e+00	1.000000e+00	1.000000e+00	1.000000e+00	1.000000e+00	1.000000e+00	1.000000e+00	1.000000e+00	1.000000e+00	1.000000e+00	1.000000e+00	1.000000e+00	1.000000e+00	9.654799e-01	9.645192e-01	9.649214e-01	9.647794e-01	9.653013e-01	9.662302e-01	9.679699e-01	9.713397e-01	9.764988e-01	9.833975e-01	9.920219e-01	1.002261e+00	1.013690e+00	1.025400e+00	1.035234e+00	1.041025e+00	1.042768e+00	1.042197e+00	1.036832e+00	1.025049e+00	1.011647e+00	1.001622e+00	9.964156e-01	9.946210e-01	9.941277e-01	9.939756e-01	9.938948e-01	9.938054e-01	9.936755e-01	9.934900e-01	9.932486e-01	9.929505e-01	9.925914e-01	9.921586e-01	9.916237e-01	9.909294e-01	9.899825e-01	9.886713e-01	9.869254e-01	9.848061e-01	9.825049e-01	9.802548e-01	9.781379e-01	9.761676e-01	9.749543e-01	9.747139e-01	9.753390e-01	9.778809e-01	9.824983e-01	9.888964e-01	9.971511e-01	1.007279e+00	1.018828e+00	1.030902e+00	1.041278e+00	1.047275e+00	1.049157e+00	1.048578e+00	1.043477e+00	1.031817e+00	1.018336e+00	1.007684e+00	1.002175e+00	1.000439e+00	1.000081e+00	1.000019e+00	1.000005e+00	1.000002e+00	1.000001e+00	1.000000e+00	1.000000e+00	1.000000e+00	1.000000e+00	1.000000e+00	1.000000e+00	1.000000e+00	1.000000e+00	1.000000e+00	1.000000e+00	1.000000e+00	1.000000e+00	1.000000e+00	1.000000e+00	1.000000e+00	1.000000e+00	1.000000e+00	1.000000e+00	1.000000e+00	1.000000e+00	1.000000e+00	1.000000e+00	1.000000e+00	1.000000e+00	1.000000e+00	1.000000e+00	1.000000e+00	1.000000e+00	1.000000e+00	1.000000e+00	1.000000e+00	1.000000e+00	9.646135e-01	9.639906e-01	9.647794e-01	9.653228e-01	9.664792e-01	9.677443e-01	9.698918e-01	9.735806e-01	9.789435e-01	9.859693e-01	9.943764e-01	1.003806e+00	1.013940e+00	1.024377e+00	1.033292e+00	1.038109e+00	1.038808e+00	1.037495e+00	1.031735e+00	1.022542e+00	1.013183e+00	1.004510e+00	9.981346e-01	9.950764e-01	9.940829e-01	9.937841e-01	9.936473e-01	9.935321e-01	9.933870e-01	9.931844e-01	9.929125e-01	9.925609e-01	9.921221e-01	9.915743e-01	9.908706e-01	9.899334e-01	9.886643e-01	9.870274e-01	9.851523e-01	9.833594e-01	9.819244e-01	9.807300e-01	9.793738e-01	9.780182e-01	9.771672e-01	9.771078e-01	9.778332e-01	9.804795e-01	9.852743e-01	9.919216e-01	1.000077e+00	1.009477e+00	1.019768e+00	1.030340e+00	1.039370e+00	1.044565e+00	1.045509e+00	1.044190e+00	1.038457e+00	1.029228e+00	1.019863e+00	1.011056e+00	1.004218e+00	1.001010e+00	1.000177e+00	1.000032e+00	1.000008e+00	1.000002e+00	1.000001e+00	1.000000e+00	1.000000e+00	1.000000e+00	1.000000e+00	1.000000e+00	1.000000e+00	1.000000e+00	1.000000e+00	1.000000e+00	1.000000e+00	1.000000e+00	1.000000e+00	1.000000e+00	1.000000e+00	1.000000e+00	1.000000e+00	1.000000e+00	1.000000e+00	1.000000e+00	1.000000e+00	1.000000e+00	1.000000e+00	1.000000e+00	1.000000e+00	1.000000e+00	1.000000e+00	1.000000e+00	1.000000e+00	1.000000e+00	1.000000e+00	1.000000e+00	1.000000e+00	9.643553e-01	9.641733e-01	9.653013e-01	9.664792e-01	9.679564e-01	9.696305e-01	9.722789e-01	9.764368e-01	9.821294e-01	9.890606e-01	9.969039e-01	1.005254e+00	1.013834e+00	1.022452e+00	1.030099e+00	1.033376e+00	1.033600e+00	1.031614e+00	1.026231e+00	1.020029e+00	1.014269e+00	1.007629e+00	1.000596e+00	9.959269e-01	9.940841e-01	9.935077e-01	9.932718e-01	9.931062e-01	9.929172e-01	9.926694e-01	9.923282e-01	9.918753e-01	9.912916e-01	9.905471e-01	9.895859e-01	9.883505e-01	9.868396e-01	9.851902e-01	9.837196e-01	9.826606e-01	9.819761e-01	9.813507e-01	9.807033e-01	9.801569e-01	9.799467e-01	9.801534e-01	9.812886e-01	9.843980e-01	9.894787e-01	9.960445e-01	1.003722e+00	1.012022e+00	1.020544e+00	1.028813e+00	1.036300e+00	1.040268e+00	1.040547e+00	1.038685e+00	1.033119e+00	1.026638e+00	1.020998e+00	1.014565e+00	1.007228e+00	1.002171e+00	1.000417e+00	1.000068e+00	1.000013e+00	1.000004e+00	1.000001e+00	1.000000e+00	1.000000e+00	1.000000e+00	1.000000e+00	1.000000e+00	1.000000e+00	1.000000e+00	1.000000e+00	1.000000e+00	1.000000e+00	1.000000e+00	1.000000e+00	1.000000e+00	1.000000e+00	1.000000e+00	1.000000e+00	1.000000e+00	1.000000e+00	1.000000e+00	1.000000e+00	1.000000e+00	1.000000e+00	1.000000e+00	1.000000e+00	1.000000e+00	1.000000e+00	1.000000e+00	1.000000e+00	1.000000e+00	1.000000e+00	1.000000e+00	1.000000e+00	9.648173e-01	9.649043e-01	9.662302e-01	9.677443e-01	9.696305e-01	9.719864e-01	9.752757e-01	9.798557e-01	9.856555e-01	9.922414e-01	9.991930e-01	1.006228e+00	1.013238e+00	1.020084e+00	1.025004e+00	1.026992e+00	1.026899e+00	1.024940e+00	1.021096e+00	1.017791e+00	1.014766e+00	1.010189e+00	1.003254e+00	9.971074e-01	9.941139e-01	9.930900e-01	9.926929e-01	9.924343e-01	9.921634e-01	9.918163e-01	9.913502e-01	9.907338e-01	9.899420e-01	9.889539e-01	9.877669e-01	9.864274e-01	9.850882e-01	9.839700e-01	9.831920e-01	9.826938e-01	9.822978e-01	9.821543e-01	9.823132e-01	9.826459e-01	9.831726e-01	9.840277e-01	9.859068e-01	9.894624e-01	9.946759e-01	1.001005e+00	1.007765e+00	1.014404e+00	1.020710e+00	1.026801e+00	1.032006e+00	1.034417e+00	1.034342e+00	1.032402e+00	1.028241e+00	1.024651e+00	1.021770e+00	1.017493e+00	1.010608e+00	1.003995e+00	1.000905e+00	1.000152e+00	1.000026e+00	1.000006e+00	1.000002e+00	1.000001e+00	1.000000e+00	1.000000e+00	1.000000e+00	1.000000e+00	1.000000e+00	1.000000e+00	1.000000e+00	1.000000e+00	1.000000e+00	1.000000e+00	1.000000e+00	1.000000e+00	1.000000e+00	1.000000e+00	1.000000e+00	1.000000e+00	1.000000e+00	1.000000e+00	1.000000e+00	1.000000e+00	1.000000e+00	1.000000e+00	1.000000e+00	1.000000e+00	1.000000e+00	1.000000e+00	1.000000e+00	1.000000e+00	1.000000e+00	1.000000e+00	1.000000e+00	9.664363e-01	9.666622e-01	9.679699e-01	9.698918e-01	9.722789e-01	9.752757e-01	9.790909e-01	9.838345e-01	9.893393e-01	9.951616e-01	1.000926e+00	1.006386e+00	1.011865e+00	1.015986e+00	1.017873e+00	1.018850e+00	1.018960e+00	1.018279e+00	1.016913e+00	1.015839e+00	1.014593e+00	1.011558e+00	1.005449e+00	9.984119e-01	9.941101e-01	9.924433e-01	9.917922e-01	9.913856e-01	9.909787e-01	9.904768e-01	9.898415e-01	9.890452e-01	9.880911e-01	9.870237e-01	9.859348e-01	9.849641e-01	9.842048e-01	9.836723e-01	9.832798e-01	9.829924e-01	9.830390e-01	9.834576e-01	9.843732e-01	9.856219e-01	9.870499e-01	9.888927e-01	9.916390e-01	9.956227e-01	1.000709e+00	1.006231e+00	1.011436e+00	1.015951e+00	1.019969e+00	1.023986e+00	1.026259e+00	1.027150e+00	1.027095e+00	1.026204e+00	1.024639e+00	1.023476e+00	1.022255e+00	1.019638e+00	1.013749e+00	1.006330e+00	1.001746e+00	1.000324e+00	1.000053e+00	1.000010e+00	1.000003e+00	1.000001e+00	1.000000e+00	1.000000e+00	1.000000e+00	1.000000e+00	1.000000e+00	1.000000e+00	1.000000e+00	1.000000e+00	1.000000e+00	1.000000e+00	1.000000e+00	1.000000e+00	1.000000e+00	1.000000e+00	1.000000e+00	1.000000e+00	1.000000e+00	1.000000e+00	1.000000e+00	1.000000e+00	1.000000e+00	1.000000e+00	1.000000e+00	1.000000e+00	1.000000e+00	1.000000e+00	1.000000e+00	1.000000e+00	1.000000e+00	1.000000e+00	1.000000e+00	9.696332e-01	9.701197e-01	9.713397e-01	9.735806e-01	9.764368e-01	9.798557e-01	9.838345e-01	9.882667e-01	9.930343e-01	9.977305e-01	1.001800e+00	1.005678e+00	1.008466e+00	1.009302e+00	1.009319e+00	1.009442e+00	1.010426e+00	1.012438e+00	1.013655e+00	1.013889e+00	1.013726e+00	1.011933e+00	1.006862e+00	9.994967e-01	9.939405e-01	9.914458e-01	9.904427e-01	9.898425e-01	9.892814e-01	9.886469e-01	9.879164e-01	9.871156e-01	9.863020e-01	9.855559e-01	9.849501e-01	9.844884e-01	9.841264e-01	9.838000e-01	9.836299e-01	9.837881e-01	9.843669e-01	9.855372e-01	9.872393e-01	9.893523e-01	9.918246e-01	9.947553e-01	9.982921e-01	1.002489e+00	1.006951e+00	1.010923e+00	1.013919e+00	1.016208e+00	1.018583e+00	1.019533e+00	1.019315e+00	1.018996e+00	1.019396e+00	1.021246e+00	1.022625e+00	1.022767e+00	1.022594e+00	1.021020e+00	1.016295e+00	1.008872e+00	1.002981e+00	1.000639e+00	1.000108e+00	1.000019e+00	1.000004e+00	1.000001e+00	1.000000e+00	1.000000e+00	1.000000e+00	1.000000e+00	1.000000e+00	1.000000e+00	1.000000e+00	1.000000e+00	1.000000e+00	1.000000e+00	1.000000e+00	1.000000e+00	1.000000e+00	1.000000e+00	1.000000e+00	1.000000e+00	1.000000e+00	1.000000e+00	1.000000e+00	1.000000e+00	1.000000e+00	1.000000e+00	1.000000e+00	1.000000e+00	1.000000e+00	1.000000e+00	1.000000e+00	1.000000e+00	1.000000e+00	1.000000e+00	1.000000e+00	9.743734e-01	9.751403e-01	9.764988e-01	9.789435e-01	9.821294e-01	9.856555e-01	9.893393e-01	9.930343e-01	9.966043e-01	9.996729e-01	1.001815e+00	1.002861e+00	1.002511e+00	1.000981e+00	1.000108e+00	1.000215e+00	1.002704e+00	1.007518e+00	1.010927e+00	1.011981e+00	1.012177e+00	1.011118e+00	1.007037e+00	9.999643e-01	9.935100e-01	9.901135e-01	9.887284e-01	9.880009e-01	9.874205e-01	9.868587e-01	9.863196e-01	9.858351e-01	9.854295e-01	9.851012e-01	9.848152e-01	9.845342e-01	9.842951e-01	9.842828e-01	9.845634e-01	9.853248e-01	9.866742e-01	9.885996e-01	9.910822e-01	9.941091e-01	9.976544e-01	1.001566e+00	1.005602e+00	1.009345e+00	1.012286e+00	1.014037e+00	1.014883e+00	1.015560e+00	1.015300e+00	1.013404e+00	1.011518e+00	1.010960e+00	1.012803e+00	1.017784e+00	1.021590e+00	1.022564e+00	1.022693e+00	1.021747e+00	1.018145e+00	1.011309e+00	1.004557e+00	1.001147e+00	1.000208e+00	1.000035e+00	1.000007e+00	1.000002e+00	1.000000e+00	1.000000e+00	1.000000e+00	1.000000e+00	1.000000e+00	1.000000e+00	1.000000e+00	1.000000e+00	1.000000e+00	1.000000e+00	1.000000e+00	1.000000e+00	1.000000e+00	1.000000e+00	1.000000e+00	1.000000e+00	1.000000e+00	1.000000e+00	1.000000e+00	1.000000e+00	1.000000e+00	1.000000e+00	1.000000e+00	1.000000e+00	1.000000e+00	1.000000e+00	1.000000e+00	1.000000e+00	1.000000e+00	1.000000e+00	1.000000e+00	9.810351e-01	9.819604e-01	9.833975e-01	9.859693e-01	9.890606e-01	9.922414e-01	9.951616e-01	9.977305e-01	9.996729e-01	1.000342e+00	1.000384e+00	9.982753e-01	9.949507e-01	9.924726e-01	9.917096e-01	9.924956e-01	9.969317e-01	1.003752e+00	1.008472e+00	1.010090e+00	1.010452e+00	1.009814e+00	1.006683e+00	1.000347e+00	9.933378e-01	9.890941e-01	9.874074e-01	9.867184e-01	9.863114e-01	9.859959e-01	9.857369e-01	9.855262e-01	9.853358e-01	9.851339e-01	9.849423e-01	9.848637e-01	9.850112e-01	9.854907e-01	9.864803e-01	9.880126e-01	9.901077e-01	9.927829e-01	9.960771e-01	1.000020e+00	1.004471e+00	1.008933e+00	1.012602e+00	1.014828e+00	1.015542e+00	1.015361e+00	1.014808e+00	1.013455e+00	1.009957e+00	1.005821e+00	1.003919e+00	1.004076e+00	1.008256e+00	1.015683e+00	1.020794e+00	1.022406e+00	1.022631e+00	1.022098e+00	1.019387e+00	1.013444e+00	1.006333e+00	1.001869e+00	1.000374e+00	1.000063e+00	1.000011e+00	1.000002e+00	1.000001e+00	1.000000e+00	1.000000e+00	1.000000e+00	1.000000e+00	1.000000e+00	1.000000e+00	1.000000e+00	1.000000e+00	1.000000e+00	1.000000e+00	1.000000e+00	1.000000e+00	1.000000e+00	1.000000e+00	1.000000e+00	1.000000e+00	1.000000e+00	1.000000e+00	1.000000e+00	1.000000e+00	1.000000e+00	1.000000e+00	1.000000e+00	1.000000e+00	1.000000e+00	1.000000e+00	1.000000e+00	1.000000e+00	1.000000e+00	1.000000e+00	9.899944e-01	9.909814e-01	9.920219e-01	9.943764e-01	9.969039e-01	9.991930e-01	1.000926e+00	1.001800e+00	1.001815e+00	1.000384e+00	9.969313e-01	9.918140e-01	9.873377e-01	9.854177e-01	9.851758e-01	9.872705e-01	9.933209e-01	1.001081e+00	1.006556e+00	1.008637e+00	1.009112e+00	1.008897e+00	1.006684e+00	1.001286e+00	9.942547e-01	9.892662e-01	9.871694e-01	9.864530e-01	9.861241e-01	9.858942e-01	9.857055e-01	9.855590e-01	9.854655e-01	9.854552e-01	9.855923e-01	9.859509e-01	9.867127e-01	9.879361e-01	9.896747e-01	9.919426e-01	9.947613e-01	9.981882e-01	1.002285e+00	1.006975e+00	1.011774e+00	1.015667e+00	1.017661e+00	1.018014e+00	1.017140e+00	1.015486e+00	1.013173e+00	1.008598e+00	1.002551e+00	9.986525e-01	9.976893e-01	9.993146e-01	1.005788e+00	1.014142e+00	1.019993e+00	1.022130e+00	1.022454e+00	1.022203e+00	1.020204e+00	1.015197e+00	1.008143e+00	1.002785e+00	1.000624e+00	1.000109e+00	1.000018e+00	1.000004e+00	1.000001e+00	1.000000e+00	1.000000e+00	1.000000e+00	1.000000e+00	1.000000e+00	1.000000e+00	1.000000e+00	1.000000e+00	1.000000e+00	1.000000e+00	1.000000e+00	1.000000e+00	1.000000e+00	1.000000e+00	1.000000e+00	1.000000e+00	1.000000e+00	1.000000e+00	1.000000e+00	1.000000e+00	1.000000e+00	1.000000e+00	1.000000e+00	1.000000e+00	1.000000e+00	1.000000e+00	1.000000e+00	1.000000e+00	1.000000e+00	1.000000e+00	1.001208e+00	1.002094e+00	1.002261e+00	1.003806e+00	1.005254e+00	1.006228e+00	1.006386e+00	1.005678e+00	1.002861e+00	9.982753e-01	9.918140e-01	9.854378e-01	9.817343e-01	9.808522e-01	9.813185e-01	9.846739e-01	9.913010e-01	9.991824e-01	1.005221e+00	1.007833e+00	1.008430e+00	1.008409e+00	1.006752e+00	1.002257e+00	9.955351e-01	9.899728e-01	9.874219e-01	9.865785e-01	9.862418e-01	9.860469e-01	9.859539e-01	9.860032e-01	9.861950e-01	9.865928e-01	9.872864e-01	9.883281e-01	9.897997e-01	9.917462e-01	9.941839e-01	9.971394e-01	1.000666e+00	1.004814e+00	1.009502e+00	1.014258e+00	1.018094e+00	1.020048e+00	1.020363e+00	1.019479e+00	1.017307e+00	1.014015e+00	1.008418e+00	1.001099e+00	9.954461e-01	9.933457e-01	9.934208e-01	9.970074e-01	1.004441e+00	1.012693e+00	1.018930e+00	1.021715e+00	1.022230e+00	1.022141e+00	1.020716e+00	1.016563e+00	1.009849e+00	1.003836e+00	1.000963e+00	1.000178e+00	1.000030e+00	1.000006e+00	1.000001e+00	1.000000e+00	1.000000e+00	1.000000e+00	1.000000e+00	1.000000e+00	1.000000e+00	1.000000e+00	1.000000e+00	1.000000e+00	1.000000e+00	1.000000e+00	1.000000e+00	1.000000e+00	1.000000e+00	1.000000e+00	1.000000e+00	1.000000e+00	1.000000e+00	1.000000e+00	1.000000e+00	1.000000e+00	1.000000e+00	1.000000e+00	1.000000e+00	1.000000e+00	1.000000e+00	1.000000e+00	1.000000e+00	1.000000e+00	1.000000e+00	1.013776e+00	1.014528e+00	1.013690e+00	1.013940e+00	1.013834e+00	1.013238e+00	1.011865e+00	1.008466e+00	1.002511e+00	9.949507e-01	9.873377e-01	9.817343e-01	9.792828e-01	9.789037e-01	9.798956e-01	9.837243e-01	9.902613e-01	9.978848e-01	1.004193e+00	1.007319e+00	1.008106e+00	1.008201e+00	1.007062e+00	1.003454e+00	9.971713e-01	9.911201e-01	9.880675e-01	9.871233e-01	9.868655e-01	9.868440e-01	9.870253e-01	9.873959e-01	9.880972e-01	9.891208e-01	9.904642e-01	9.921793e-01	9.943163e-01	9.969067e-01	9.999865e-01	1.003597e+00	1.007737e+00	1.012252e+00	1.016622e+00	1.019948e+00	1.021591e+00	1.021821e+00	1.021359e+00	1.019589e+00	1.015792e+00	1.009011e+00	1.000512e+00	9.938149e-01	9.907775e-01	9.901680e-01	9.914513e-01	9.962011e-01	1.003379e+00	1.011193e+00	1.017726e+00	1.021188e+00	1.022001e+00	1.022026e+00	1.021027e+00	1.017590e+00	1.011360e+00	1.004944e+00	1.001382e+00	1.000273e+00	1.000046e+00	1.000008e+00	1.000002e+00	1.000000e+00	1.000000e+00	1.000000e+00	1.000000e+00	1.000000e+00	1.000000e+00	1.000000e+00	1.000000e+00	1.000000e+00	1.000000e+00	1.000000e+00	1.000000e+00	1.000000e+00	1.000000e+00	1.000000e+00	1.000000e+00	1.000000e+00	1.000000e+00	1.000000e+00	1.000000e+00	1.000000e+00	1.000000e+00	1.000000e+00	1.000000e+00	1.000000e+00	1.000000e+00	1.000000e+00	1.000000e+00	1.000000e+00	1.000000e+00	1.025917e+00	1.026733e+00	1.025400e+00	1.024377e+00	1.022452e+00	1.020084e+00	1.015986e+00	1.009302e+00	1.000981e+00	9.924726e-01	9.854177e-01	9.808522e-01	9.789037e-01	9.784655e-01	9.796624e-01	9.837198e-01	9.900633e-01	9.971957e-01	1.003656e+00	1.007417e+00	1.008491e+00	1.008733e+00	1.008045e+00	1.005078e+00	9.993250e-01	9.930434e-01	9.895917e-01	9.886615e-01	9.886198e-01	9.888847e-01	9.893677e-01	9.902783e-01	9.915949e-01	9.932196e-01	9.951578e-01	9.974643e-01	1.000185e+00	1.003354e+00	1.006981e+00	1.010990e+00	1.015103e+00	1.018752e+00	1.021238e+00	1.022354e+00	1.022491e+00	1.022259e+00	1.021227e+00	1.017827e+00	1.010311e+00	1.000517e+00	9.930309e-01	9.895337e-01	9.885992e-01	9.887945e-01	9.910157e-01	9.957550e-01	1.002301e+00	1.009687e+00	1.016485e+00	1.020603e+00	1.021779e+00	1.021896e+00	1.021202e+00	1.018358e+00	1.012629e+00	1.006034e+00	1.001859e+00	1.000394e+00	1.000068e+00	1.000012e+00	1.000002e+00	1.000001e+00	1.000000e+00	1.000000e+00	1.000000e+00	1.000000e+00	1.000000e+00	1.000000e+00	1.000000e+00	1.000000e+00	1.000000e+00	1.000000e+00	1.000000e+00	1.000000e+00	1.000000e+00	1.000000e+00	1.000000e+00	1.000000e+00	1.000000e+00	1.000000e+00	1.000000e+00	1.000000e+00	1.000000e+00	1.000000e+00	1.000000e+00	1.000000e+00	1.000000e+00	1.000000e+00	1.000000e+00	1.000000e+00	1.000000e+00	1.035917e+00	1.036957e+00	1.035234e+00	1.033292e+00	1.030099e+00	1.025004e+00	1.017873e+00	1.009319e+00	1.000108e+00	9.917096e-01	9.851758e-01	9.813185e-01	9.798956e-01	9.796624e-01	9.813661e-01	9.856165e-01	9.913298e-01	9.978353e-01	1.004361e+00	1.008708e+00	1.010101e+00	1.010438e+00	1.009988e+00	1.007567e+00	1.002474e+00	9.962491e-01	9.925364e-01	9.917207e-01	9.919347e-01	9.924193e-01	9.933457e-01	9.948278e-01	9.966770e-01	9.988065e-01	1.001249e+00	1.004050e+00	1.007216e+00	1.010697e+00	1.014321e+00	1.017719e+00	1.020387e+00	1.022013e+00	1.022634e+00	1.022753e+00	1.022582e+00	1.021841e+00	1.018868e+00	1.011607e+00	1.001261e+00	9.929977e-01	9.891347e-01	9.880239e-01	9.878888e-01	9.885925e-01	9.909651e-01	9.952896e-01	1.001207e+00	1.008306e+00	1.015328e+00	1.020011e+00	1.021566e+00	1.021762e+00	1.021287e+00	1.018904e+00	1.013666e+00	1.007039e+00	1.002362e+00	1.000535e+00	1.000095e+00	1.000016e+00	1.000003e+00	1.000001e+00	1.000000e+00	1.000000e+00	1.000000e+00	1.000000e+00	1.000000e+00	1.000000e+00	1.000000e+00	1.000000e+00	1.000000e+00	1.000000e+00	1.000000e+00	1.000000e+00	1.000000e+00	1.000000e+00	1.000000e+00	1.000000e+00	1.000000e+00	1.000000e+00	1.000000e+00	1.000000e+00	1.000000e+00	1.000000e+00	1.000000e+00	1.000000e+00	1.000000e+00	1.000000e+00	1.000000e+00	1.000000e+00	1.000000e+00	1.042941e+00	1.043574e+00	1.041025e+00	1.038109e+00	1.033376e+00	1.026992e+00	1.018850e+00	1.009442e+00	1.000215e+00	9.924956e-01	9.872705e-01	9.846739e-01	9.837243e-01	9.837198e-01	9.856165e-01	9.892823e-01	9.942058e-01	1.000216e+00	1.006677