# vtk DataFile Version 3.0
vtk output
ASCII
DATASET STRUCTURED_GRID
DIMENSIONS 101 101 1
POINTS 10201 double
0.000000e+00	0.000000e+00	0.0	1.000000e-02	0.000000e+00	0.0	2.000000e-02	0.000000e+00	0.0	3.000000e-02	0.000000e+00	0.0	4.000000e-02	0.000000e+00	0.0	5.000000e-02	0.000000e+00	0.0	6.000000e-02	0.000000e+00	0.0	7.000000e-02	0.000000e+00	0.0	8.000000e-02	0.000000e+00	0.0	9.000000e-02	0.000000e+00	0.0	1.000000e-01	0.000000e+00	0.0	1.100000e-01	0.000000e+00	0.0	1.200000e-01	0.000000e+00	0.0	1.300000e-01	0.000000e+00	0.0	1.400000e-01	0.000000e+00	0.0	1.500000e-01	0.000000e+00	0.0	1.600000e-01	0.000000e+00	0.0	1.700000e-01	0.000000e+00	0.0	1.800000e-01	0.000000e+00	0.0	1.900000e-01	0.000000e+00	0.0	2.000000e-01	0.000000e+00	0.0	2.100000e-01	0.000000e+00	0.0	2.200000e-01	0.000000e+00	0.0	2.300000e-01	0.000000e+00	0.0	2.400000e-01	0.000000e+00	0.0	2.500000e-01	0.000000e+00	0.0	2.600000e-01	0.000000e+00	0.0	2.700000e-01	0.000000e+00	0.0	2.800000e-01	0.000000e+00	0.0	2.900000e-01	0.000000e+00	0.0	3.000000e-01	0.000000e+00	0.0	3.100000e-01	0.000000e+00	0.0	3.200000e-01	0.000000e+00	0.0	3.300000e-01	0.000000e+00	0.0	3.400000e-01	0.000000e+00	0.0	3.500000e-01	0.000000e+00	0.0	3.600000e-01	0.000000e+00	0.0	3.700000e-01	0.000000e+00	0.0	3.800000e-01	0.000000e+00	0.0	3.900000e-01	0.000000e+00	0.0	4.000000e-01	0.000000e+00	0.0	4.100000e-01	0.000000e+00	0.0	4.200000e-01	0.000000e+00	0.0	4.300000e-01	0.000000e+00	0.0	4.400000e-01	0.000000e+00	0.0	4.500000e-01	0.000000e+00	0.0	4.600000e-01	0.000000e+00	0.0	4.700000e-01	0.000000e+00	0.0	4.800000e-01	0.000000e+00	0.0	4.900000e-01	0.000000e+00	0.0	5.000000e-01	0.000000e+00	0.0	5.100000e-01	0.000000e+00	0.0	5.200000e-01	0.000000e+00	0.0	5.300000e-01	0.000000e+00	0.0	5.400000e-01	0.000000e+00	0.0	5.500000e-01	0.000000e+00	0.0	5.600000e-01	0.000000e+00	0.0	5.700000e-01	0.000000e+00	0.0	5.800000e-01	0.000000e+00	0.0	5.900000e-01	0.000000e+00	0.0	6.000000e-01	0.000000e+00	0.0	6.100000e-01	0.000000e+00	0.0	6.200000e-01	0.000000e+00	0.0	6.300000e-01	0.000000e+00	0.0	6.400000e-01	0.000000e+00	0.0	6.500000e-01	0.000000e+00	0.0	6.600000e-01	0.000000e+00	0.0	6.700000e-01	0.000000e+00	0.0	6.800000e-01	0.000000e+00	0.0	6.900000e-01	0.000000e+00	0.0	7.000000e-01	0.000000e+00	0.0	7.100000e-01	0.000000e+00	0.0	7.200000e-01	0.000000e+00	0.0	7.300000e-01	0.000000e+00	0.0	7.400000e-01	0.000000e+00	0.0	7.500000e-01	0.000000e+00	0.0	7.600000e-01	0.000000e+00	0.0	7.700000e-01	0.000000e+00	0.0	7.800000e-01	0.000000e+00	0.0	7.900000e-01	0.000000e+00	0.0	8.000000e-01	0.000000e+00	0.0	8.100000e-01	0.000000e+00	0.0	8.200000e-01	0.000000e+00	0.0	8.300000e-01	0.000000e+00	0.0	8.400000e-01	0.000000e+00	0.0	8.500000e-01	0.000000e+00	0.0	8.600000e-01	0.000000e+00	0.0	8.700000e-01	0.000000e+00	0.0	8.800000e-01	0.000000e+00	0.0	8.900000e-01	0.000000e+00	0.0	9.000000e-01	0.000000e+00	0.0	9.100000e-01	0.000000e+00	0.0	9.200000e-01	0.000000e+00	0.0	9.300000e-01	0.000000e+00	0.0	9.400000e-01	0.000000e+00	0.0	9.500000e-01	0.000000e+00	0.0	9.600000e-01	0.000000e+00	0.0	9.700000e-01	0.000000e+00	0.0	9.800000e-01	0.000000e+00	0.0	9.900000e-01	0.000000e+00	0.0	1.000000e+00	0.000000e+00	0.0	0.000000e+00	1.000000e-02	0.0	1.000000e-02	1.000000e-02	0.0	2.000000e-02	1.000000e-02	0.0	3.000000e-02	1.000000e-02	0.0	4.000000e-02	1.000000e-02	0.0	5.000000e-02	1.000000e-02	0.0	6.000000e-02	1.000000e-02	0.0	7.000000e-02	1.000000e-02	0.0	8.000000e-02	1.000000e-02	0.0	9.000000e-02	1.000000e-02	0.0	1.000000e-01	1.000000e-02	0.0	1.100000e-01	1.000000e-02	0.0	1.200000e-01	1.000000e-02	0.0	1.300000e-01	1.000000e-02	0.0	1.400000e-01	1.000000e-02	0.0	1.500000e-01	1.000000e-02	0.0	1.600000e-01	1.000000e-02	0.0	1.700000e-01	1.000000e-02	0.0	1.800000e-01	1.000000e-02	0.0	1.900000e-01	1.000000e-02	0.0	2.000000e-01	1.000000e-02	0.0	2.100000e-01	1.000000e-02	0.0	2.200000e-01	1.000000e-02	0.0	2.300000e-01	1.000000e-02	0.0	2.400000e-01	1.000000e-02	0.0	2.500000e-01	1.000000e-02	0.0	2.600000e-01	1.000000e-02	0.0	2.700000e-01	1.000000e-02	0.0	2.800000e-01	1.000000e-02	0.0	2.900000e-01	1.000000e-02	0.0	3.000000e-01	1.000000e-02	0.0	3.100000e-01	1.000000e-02	0.0	3.200000e-01	1.000000e-02	0.0	3.300000e-01	1.000000e-02	0.0	3.400000e-01	1.000000e-02	0.0	3.500000e-01	1.000000e-02	0.0	3.600000e-01	1.000000e-02	0.0	3.700000e-01	1.000000e-02	0.0	3.800000e-01	1.000000e-02	0.0	3.900000e-01	1.000000e-02	0.0	4.000000e-01	1.000000e-02	0.0	4.100000e-01	1.000000e-02	0.0	4.200000e-01	1.000000e-02	0.0	4.300000e-01	1.000000e-02	0.0	4.400000e-01	1.000000e-02	0.0	4.500000e-01	1.000000e-02	0.0	4.600000e-01	1.000000e-02	0.0	4.700000e-01	1.000000e-02	0.0	4.800000e-01	1.000000e-02	0.0	4.900000e-01	1.000000e-02	0.0	5.000000e-01	1.000000e-02	0.0	5.100000e-01	1.000000e-02	0.0	5.200000e-01	1.000000e-02	0.0	5.300000e-01	1.000000e-02	0.0	5.400000e-01	1.000000e-02	0.0	5.500000e-01	1.000000e-02	0.0	5.600000e-01	1.000000e-02	0.0	5.700000e-01	1.000000e-02	0.0	5.800000e-01	1.000000e-02	0.0	5.900000e-01	1.000000e-02	0.0	6.000000e-01	1.000000e-02	0.0	6.100000e-01	1.000000e-02	0.0	6.200000e-01	1.000000e-02	0.0	6.300000e-01	1.000000e-02	0.0	6.400000e-01	1.000000e-02	0.0	6.500000e-01	1.000000e-02	0.0	6.600000e-01	1.000000e-02	0.0	6.700000e-01	1.000000e-02	0.0	6.800000e-01	1.000000e-02	0.0	6.900000e-01	1.000000e-02	0.0	7.000000e-01	1.000000e-02	0.0	7.100000e-01	1.000000e-02	0.0	7.200000e-01	1.000000e-02	0.0	7.300000e-01	1.000000e-02	0.0	7.400000e-01	1.000000e-02	0.0	7.500000e-01	1.000000e-02	0.0	7.600000e-01	1.000000e-02	0.0	7.700000e-01	1.000000e-02	0.0	7.800000e-01	1.000000e-02	0.0	7.900000e-01	1.000000e-02	0.0	8.000000e-01	1.000000e-02	0.0	8.100000e-01	1.000000e-02	0.0	8.200000e-01	1.000000e-02	0.0	8.300000e-01	1.000000e-02	0.0	8.400000e-01	1.000000e-02	0.0	8.500000e-01	1.000000e-02	0.0	8.600000e-01	1.000000e-02	0.0	8.700000e-01	1.000000e-02	0.0	8.800000e-01	1.000000e-02	0.0	8.900000e-01	1.000000e-02	0.0	9.000000e-01	1.000000e-02	0.0	9.100000e-01	1.000000e-02	0.0	9.200000e-01	1.000000e-02	0.0	9.300000e-01	1.000000e-02	0.0	9.400000e-01	1.000000e-02	0.0	9.500000e-01	1.000000e-02	0.0	9.600000e-01	1.000000e-02	0.0	9.700000e-01	1.000000e-02	0.0	9.800000e-01	1.000000e-02	0.0	9.900000e-01	1.000000e-02	0.0	1.000000e+00	1.000000e-02	0.0	0.000000e+00	2.000000e-02	0.0	1.000000e-02	2.000000e-02	0.0	2.000000e-02	2.000000e-02	0.0	3.000000e-02	2.000000e-02	0.0	4.000000e-02	2.000000e-02	0.0	5.000000e-02	2.000000e-02	0.0	6.000000e-02	2.000000e-02	0.0	7.000000e-02	2.000000e-02	0.0	8.000000e-02	2.000000e-02	0.0	9.000000e-02	2.000000e-02	0.0	1.000000e-01	2.000000e-02	0.0	1.100000e-01	2.000000e-02	0.0	1.200000e-01	2.000000e-02	0.0	1.300000e-01	2.000000e-02	0.0	1.400000e-01	2.000000e-02	0.0	1.500000e-01	2.000000e-02	0.0	1.600000e-01	2.000000e-02	0.0	1.700000e-01	2.000000e-02	0.0	1.800000e-01	2.000000e-02	0.0	1.900000e-01	2.000000e-02	0.0	2.000000e-01	2.000000e-02	0.0	2.100000e-01	2.000000e-02	0.0	2.200000e-01	2.000000e-02	0.0	2.300000e-01	2.000000e-02	0.0	2.400000e-01	2.000000e-02	0.0	2.500000e-01	2.000000e-02	0.0	2.600000e-01	2.000000e-02	0.0	2.700000e-01	2.000000e-02	0.0	2.800000e-01	2.000000e-02	0.0	2.900000e-01	2.000000e-02	0.0	3.000000e-01	2.000000e-02	0.0	3.100000e-01	2.000000e-02	0.0	3.200000e-01	2.000000e-02	0.0	3.300000e-01	2.000000e-02	0.0	3.400000e-01	2.000000e-02	0.0	3.500000e-01	2.000000e-02	0.0	3.600000e-01	2.000000e-02	0.0	3.700000e-01	2.000000e-02	0.0	3.800000e-01	2.000000e-02	0.0	3.900000e-01	2.000000e-02	0.0	4.000000e-01	2.000000e-02	0.0	4.100000e-01	2.000000e-02	0.0	4.200000e-01	2.000000e-02	0.0	4.300000e-01	2.000000e-02	0.0	4.400000e-01	2.000000e-02	0.0	4.500000e-01	2.000000e-02	0.0	4.600000e-01	2.000000e-02	0.0	4.700000e-01	2.000000e-02	0.0	4.800000e-01	2.000000e-02	0.0	4.900000e-01	2.000000e-02	0.0	5.000000e-01	2.000000e-02	0.0	5.100000e-01	2.000000e-02	0.0	5.200000e-01	2.000000e-02	0.0	5.300000e-01	2.000000e-02	0.0	5.400000e-01	2.000000e-02	0.0	5.500000e-01	2.000000e-02	0.0	5.600000e-01	2.000000e-02	0.0	5.700000e-01	2.000000e-02	0.0	5.800000e-01	2.000000e-02	0.0	5.900000e-01	2.000000e-02	0.0	6.000000e-01	2.000000e-02	0.0	6.100000e-01	2.000000e-02	0.0	6.200000e-01	2.000000e-02	0.0	6.300000e-01	2.000000e-02	0.0	6.400000e-01	2.000000e-02	0.0	6.500000e-01	2.000000e-02	0.0	6.600000e-01	2.000000e-02	0.0	6.700000e-01	2.000000e-02	0.0	6.800000e-01	2.000000e-02	0.0	6.900000e-01	2.000000e-02	0.0	7.000000e-01	2.000000e-02	0.0	7.100000e-01	2.000000e-02	0.0	7.200000e-01	2.000000e-02	0.0	7.300000e-01	2.000000e-02	0.0	7.400000e-01	2.000000e-02	0.0	7.500000e-01	2.000000e-02	0.0	7.600000e-01	2.000000e-02	0.0	7.700000e-01	2.000000e-02	0.0	7.800000e-01	2.000000e-02	0.0	7.900000e-01	2.000000e-02	0.0	8.000000e-01	2.000000e-02	0.0	8.100000e-01	2.000000e-02	0.0	8.200000e-01	2.000000e-02	0.0	8.300000e-01	2.000000e-02	0.0	8.400000e-01	2.000000e-02	0.0	8.500000e-01	2.000000e-02	0.0	8.600000e-01	2.000000e-02	0.0	8.700000e-01	2.000000e-02	0.0	8.800000e-01	2.000000e-02	0.0	8.900000e-01	2.000000e-02	0.0	9.000000e-01	2.000000e-02	0.0	9.100000e-01	2.000000e-02	0.0	9.200000e-01	2.000000e-02	0.0	9.300000e-01	2.000000e-02	0.0	9.400000e-01	2.000000e-02	0.0	9.500000e-01	2.000000e-02	0.0	9.600000e-01	2.000000e-02	0.0	9.700000e-01	2.000000e-02	0.0	9.800000e-01	2.000000e-02	0.0	9.900000e-01	2.000000e-02	0.0	1.000000e+00	2.000000e-02	0.0	0.000000e+00	3.000000e-02	0.0	1.000000e-02	3.000000e-02	0.0	2.000000e-02	3.000000e-02	0.0	3.000000e-02	3.000000e-02	0.0	4.000000e-02	3.000000e-02	0.0	5.000000e-02	3.000000e-02	0.0	6.000000e-02	3.000000e-02	0.0	7.000000e-02	3.000000e-02	0.0	8.000000e-02	3.000000e-02	0.0	9.000000e-02	3.000000e-02	0.0	1.000000e-01	3.000000e-02	0.0	1.100000e-01	3.000000e-02	0.0	1.200000e-01	3.000000e-02	0.0	1.300000e-01	3.000000e-02	0.0	1.400000e-01	3.000000e-02	0.0	1.500000e-01	3.000000e-02	0.0	1.600000e-01	3.000000e-02	0.0	1.700000e-01	3.000000e-02	0.0	1.800000e-01	3.000000e-02	0.0	1.900000e-01	3.000000e-02	0.0	2.000000e-01	3.000000e-02	0.0	2.100000e-01	3.000000e-02	0.0	2.200000e-01	3.000000e-02	0.0	2.300000e-01	3.000000e-02	0.0	2.400000e-01	3.000000e-02	0.0	2.500000e-01	3.000000e-02	0.0	2.600000e-01	3.000000
[...]
POINT_DATA 10201

SCALARS Height double 1
LOOKUP_TABLE default
1.015088e+00	1.016544e+00	1.033417e+00	1.051117e+00	1.064291e+00	1.070567e+00	1.072295e+00	1.071688e+00	1.069028e+00	1.064182e+00	1.057308e+00	1.049401e+00	1.041289e+00	1.033596e+00	1.026721e+00	1.020832e+00	1.015976e+00	1.012185e+00	1.009469e+00	1.007883e+00	1.007363e+00	1.007883e+00	1.009469e+00	1.012185e+00	1.015976e+00	1.020832e+00	1.026721e+00	1.033596e+00	1.041289e+00	1.049401e+00	1.057309e+00	1.064185e+00	1.069035e+00	1.071697e+00	1.072283e+00	1.070492e+00	1.064100e+00	1.050767e+00	1.032195e+00	1.015367e+00	1.005944e+00	1.002281e+00	1.000965e+00	1.000418e+00	1.000167e+00	1.000059e+00	1.000019e+00	1.000006e+00	1.000002e+00	1.000000e+00	1.000000e+00	1.000000e+00	1.000000e+00	1.000000e+00	1.000000e+00	1.000000e+00	1.000000e+00	1.000000e+00	1.000000e+00	1.000000e+00	1.000000e+00	1.000000e+00	1.000000e+00	1.000000e+00	1.000000e+00	1.000000e+00	1.000000e+00	1.000000e+00	1.000000e+00	1.000000e+00	1.000000e+00	1.000000e+00	1.000000e+00	1.000000e+00	1.000000e+00	1.000000e+00	1.000000e+00	1.000000e+00	1.000000e+00	1.000000e+00	1.000000e+00	1.000000e+00	1.000000e+00	1.000000e+00	1.000000e+00	1.000000e+00	1.000000e+00	1.000000e+00	1.000000e+00	1.000000e+00	1.000000e+00	1.000000e+00	1.000000e+00	1.000000e+00	1.000000e+00	1.000000e+00	1.000000e+00	1.000000e+00	1.000000e+00	1.000000e+00	1.000000e+00	1.016544e+00	1.016986e+00	1.031686e+00	1.045996e+00	1.058344e+00	1.066253e+00	1.069359e+00	1.069947e+00	1.067728e+00	1.062601e+00	1.056210e+00	1.049361e+00	1.042403e+00	1.035687e+00	1.029549e+00	1.024215e+00	1.019783e+00	1.016307e+00	1.013843e+00	1.012443e+00	1.011922e+00	1.012443e+00	1.013843e+00	1.016307e+00	1.019783e+00	1.024215e+00	1.029549e+00	1.035686e+00	1.042403e+00	1.049362e+00	1.056211e+00	1.062604e+00	1.067736e+00	1.069954e+00	1.069348e+00	1.066171e+00	1.058120e+00	1.045734e+00	1.030552e+00	1.016108e+00	1.006460e+00	1.002312e+00	1.000919e+00	1.000396e+00	1.000161e+00	1.000057e+00	1.000018e+00	1.000005e+00	1.000001e+00	1.000000e+00	1.000000e+00	1.000000e+00	1.000000e+00	1.000000e+00	1.000000e+00	1.000000e+00	1.000000e+00	1.000000e+00	1.000000e+00	1.000000e+00	1.000000e+00	1.000000e+00	1.000000e+00	1.000000e+00	1.000000e+00	1.000000e+00	1.000000e+00	1.000000e+00	1.000000e+00	1.000000e+00	1.000000e+00	1.000000e+00	1.000000e+00	1.000000e+00	1.000000e+00	1.000000e+00	1.000000e+00	1.000000e+00	1.000000e+00	1.000000e+00	1.000000e+00	1.000000e+00	1.000000e+00	1.000000e+00	1.000000e+00	1.000000e+00	1.000000e+00	1.000000e+00	1.000000e+00	1.000000e+00	1.000000e+00	1.000000e+00	1.000000e+00	1.000000e+00	1.000000e+00	1.000000e+00	1.000000e+00	1.000000e+00	1.000000e+00	1.000000e+00	1.000000e+00	1.033417e+00	1.031686e+00	1.038804e+00	1.043372e+00	1.050054e+00	1.057986e+00	1.061989e+00	1.061995e+00	1.057824e+00	1.051153e+00	1.044038e+00	1.037523e+00	1.031886e+00	1.026899e+00	1.022417e+00	1.018513e+00	1.015301e+00	1.012836e+00	1.011182e+00	1.010241e+00	1.009886e+00	1.010241e+00	1.011182e+00	1.012836e+00	1.015301e+00	1.018513e+00	1.022417e+00	1.026899e+00	1.031887e+00	1.037523e+00	1.044041e+00	1.051159e+00	1.057832e+00	1.061988e+00	1.061931e+00	1.057842e+00	1.049715e+00	1.042194e+00	1.035988e+00	1.027501e+00	1.015499e+00	1.005989e+00	1.002010e+00	1.000760e+00	1.000314e+00	1.000123e+00	1.000042e+00	1.000012e+00	1.000003e+00	1.000001e+00	1.000000e+00	1.000000e+00	1.000000e+00	1.000000e+00	1.000000e+00	1.000000e+00	1.000000e+00	1.000000e+00	1.000000e+00	1.000000e+00	1.000000e+00	1.000000e+00	1.000000e+00	1.000000e+00	1.000000e+00	1.000000e+00	1.000000e+00	1.000000e+00	1.000000e+00	1.000000e+00	1.000000e+00	1.000000e+00	1.000000e+00	1.000000e+00	1.000000e+00	1.000000e+00	1.000000e+00	1.000000e+00	1.000000e+00	1.000000e+00	1.000000e+00	1.000000e+00	1.000000e+00	1.000000e+00	1.000000e+00	1.000000e+00	1.000000e+00	1.000000e+00	1.000000e+00	1.000000e+00	1.000000e+00	1.000000e+00	1.000000e+00	1.000000e+00	1.000000e+00	1.000000e+00	1.000000e+00	1.000000e+00	1.000000e+00	1.000000e+00	1.000000e+00	1.051117e+00	1.045996e+00	1.043372e+00	1.041074e+00	1.042647e+00	1.045104e+00	1.046141e+00	1.044507e+00	1.040964e+00	1.037105e+00	1.033049e+00	1.028618e+00	1.024363e+00	1.020730e+00	1.017843e+00	1.015628e+00	1.014007e+00	1.012921e+00	1.012208e+00	1.011784e+00	1.011636e+00	1.011784e+00	1.012208e+00	1.012921e+00	1.014007e+00	1.015628e+00	1.017843e+00	1.020730e+00	1.024364e+00	1.028620e+00	1.033055e+00	1.037113e+00	1.040965e+00	1.044469e+00	1.046026e+00	1.044789e+00	1.041737e+00	1.038787e+00	1.036701e+00	1.033514e+00	1.025710e+00	1.013654e+00	1.004878e+00	1.001566e+00	1.000583e+00	1.000236e+00	1.000089e+00	1.000029e+00	1.000008e+00	1.000002e+00	1.000001e+00	1.000000e+00	1.000000e+00	1.000000e+00	1.000000e+00	1.000000e+00	1.000000e+00	1.000000e+00	1.000000e+00	1.000000e+00	1.000000e+00	1.000000e+00	1.000000e+00	1.000000e+00	1.000000e+00	1.000000e+00	1.000000e+00	1.000000e+00	1.000000e+00	1.000000e+00	1.000000e+00	1.000000e+00	1.000000e+00	1.000000e+00	1.000000e+00	1.000000e+00	1.000000e+00	1.000000e+00	1.000000e+00	1.000000e+00	1.000000e+00	1.000000e+00	1.000000e+00	1.000000e+00	1.000000e+00	1.000000e+00	1.000000e+00	1.000000e+00	1.000000e+00	1.000000e+00	1.000000e+00	1.000000e+00	1.000000e+00	1.000000e+00	1.000000e+00	1.000000e+00	1.000000e+00	1.000000e+00	1.000000e+00	1.000000e+00	1.000000e+00	1.064291e+00	1.058344e+00	1.050054e+00	1.042647e+00	1.038370e+00	1.033511e+00	1.027112e+00	1.022996e+00	1.021239e+00	1.020428e+00	1.019655e+00	1.018516e+00	1.016980e+00	1.015304e+00	1.013855e+00	1.012854e+00	1.012274e+00	1.011973e+00	1.011807e+00	1.011720e+00	1.011681e+00	1.011720e+00	1.011807e+00	1.011973e+00	1.012274e+00	1.012854e+00	1.013854e+00	1.015304e+00	1.016982e+00	1.018521e+00	1.019665e+00	1.020435e+00	1.021207e+00	1.022914e+00	1.026886e+00	1.032877e+00	1.036725e+00	1.037187e+00	1.036765e+00	1.035749e+00	1.032478e+00	1.023621e+00	1.011468e+00	1.003819e+00	1.001206e+00	1.000444e+00	1.000174e+00	1.000062e+00	1.000019e+00	1.000005e+00	1.000001e+00	1.000000e+00	1.000000e+00	1.000000e+00	1.000000e+00	1.000000e+00	1.000000e+00	1.000000e+00	1.000000e+00	1.000000e+00	1.000000e+00	1.000000e+00	1.000000e+00	1.000000e+00	1.000000e+00	1.000000e+00	1.000000e+00	1.000000e+00	1.000000e+00	1.000000e+00	1.000000e+00	1.000000e+00	1.000000e+00	1.000000e+00	1.000000e+00	1.000000e+00	1.000000e+00	1.000000e+00	1.000000e+00	1.000000e+00	1.000000e+00	1.000000e+00	1.000000e+00	1.000000e+00	1.000000e+00	1.000000e+00	1.000000e+00	1.000000e+00	1.000000e+00	1.000000e+00	1.000000e+00	1.000000e+00	1.000000e+00	1.000000e+00	1.000000e+00	1.000000e+00	1.000000e+00	1.000000e+00	1.000000e+00	1.000000e+00	1.000000e+00	1.070567e+00	1.066253e+00	1.057986e+00	1.045104e+00	1.033511e+00	1.021330e+00	1.011504e+00	1.005675e+00	1.003263e+00	1.003239e+00	1.004264e+00	1.005941e+00	1.007590e+00	1.008858e+00	1.009807e+00	1.010502e+00	1.010858e+00	1.011040e+00	1.011138e+00	1.011194e+00	1.011202e+00	1.011194e+00	1.011138e+00	1.011040e+00	1.010858e+00	1.010502e+00	1.009807e+00	1.008859e+00	1.007594e+00	1.005950e+00	1.004276e+00	1.003228e+00	1.003213e+00	1.005527e+00	1.011130e+00	1.020166e+00	1.029857e+00	1.035363e+00	1.036496e+00	1.036245e+00	1.035106e+00	1.030840e+00	1.020588e+00	1.008922e+00	1.002777e+00	1.000872e+00	1.000318e+00	1.000120e+00	1.000040e+00	1.000012e+00	1.000003e+00	1.000001e+00	1.000000e+00	1.000000e+00	1.000000e+00	1.000000e+00	1.000000e+00	1.000000e+00	1.000000e+00	1.000000e+00	1.000000e+00	1.000000e+00	1.000000e+00	1.000000e+00	1.000000e+00	1.000000e+00	1.000000e+00	1.000000e+00	1.000000e+00	1.000000e+00	1.000000e+00	1.000000e+00	1.000000e+00	1.000000e+00	1.000000e+00	1.000000e+00	1.000000e+00	1.000000e+00	1.000000e+00	1.000000e+00	1.000000e+00	1.000000e+00	1.000000e+00	1.000000e+00	1.000000e+00	1.000000e+00	1.000000e+00	1.000000e+00	1.000000e+00	1.000000e+00	1.000000e+00	1.000000e+00	1.000000e+00	1.000000e+00	1.000000e+00	1.000000e+00	1.000000e+00	1.000000e+00	1.000000e+00	1.000000e+00	1.000000e+00	1.072295e+00	1.069359e+00	1.061989e+00	1.046141e+00	1.027112e+00	1.011504e+00	1.001484e+00	9.951124e-01	9.913331e-01	9.902722e-01	9.911155e-01	9.933332e-01	9.963102e-01	9.994709e-01	1.002392e+00	1.004667e+00	1.006322e+00	1.007475e+00	1.008233e+00	1.008681e+00	1.008875e+00	1.008681e+00	1.008233e+00	1.007475e+00	1.006322e+00	1.004667e+00	1.002393e+00	9.994738e-01	9.963180e-01	9.933457e-01	9.911141e-01	9.902487e-01	9.912445e-01	9.948729e-01	1.000757e+00	1.009115e+00	1.019798e+00	1.029923e+00	1.035137e+00	1.036124e+00	1.035830e+00	1.034184e+00	1.028245e+00	1.016702e+00	1.006346e+00	1.001869e+00	1.000591e+00	1.000213e+00	1.000076e+00	1.000024e+00	1.000007e+00	1.000002e+00	1.000000e+00	1.000000e+00	1.000000e+00	1.000000e+00	1.000000e+00	1.000000e+00	1.000000e+00	1.000000e+00	1.000000e+00	1.000000e+00	1.000000e+00	1.000000e+00	1.000000e+00	1.000000e+00	1.000000e+00	1.000000e+00	1.000000e+00	1.000000e+00	1.000000e+00	1.000000e+00	1.000000e+00	1.000000e+00	1.000000e+00	1.000000e+00	1.000000e+00	1.000000e+00	1.000000e+00	1.000000e+00	1.000000e+00	1.000000e+00	1.000000e+00	1.000000e+00	1.000000e+00	1.000000e+00	1.000000e+00	1.000000e+00	1.000000e+00	1.000000e+00	1.000000e+00	1.000000e+00	1.000000e+00	1.000000e+00	1.000000e+00	1.000000e+00	1.000000e+00	1.000000e+00	1.000000e+00	1.000000e+00	1.000000e+00	1.071688e+00	1.069947e+00	1.061995e+00	1.044507e+00	1.022996e+00	1.005675e+00	9.951124e-01	9.887846e-01	9.850237e-01	9.835839e-01	9.837262e-01	9.848982e-01	9.870398e-01	9.898469e-01	9.928918e-01	9.959129e-01	9.985926e-01	1.000725e+00	1.002259e+00	1.003163e+00	1.003404e+00	1.003163e+00	1.002259e+00	1.000725e+00	9.985924e-01	9.959128e-01	9.928929e-01	9.898516e-01	9.870499e-01	9.849037e-01	9.837193e-01	9.835393e-01	9.849027e-01	9.883883e-01	9.936716e-01	1.000807e+00	1.010197e+00	1.021309e+00	1.030767e+00	1.035079e+00	1.035759e+00	1.035243e+00	1.032569e+00	1.024391e+00	1.012338e+00	1.004100e+00	1.001168e+00	1.000374e+00	1.000133e+00	1.000045e+00	1.000013e+00	1.000003e+00	1.000001e+00	1.000000e+00	1.000000e+00	1.000000e+00	1.000000e+00	1.000000e+00	1.000000e+00	1.000000e+00	1.000000e+00	1.000000e+00	1.000000e+00	1.000000e+00	1.000000e+00	1.000000e+00	1.000000e+00	1.000000e+00	1.000000e+00	1.000000e+00	1.000000e+00	1.000000e+00	1.000000e+00	1.000000e+00	1.000000e+00	1.000000e+00	1.000000e+00	1.000000e+00	1.000000e+00	1.000000e+00	1.000000e+00	1.000000e+00	1.000000e+00	1.000000e+00	1.000000e+00	1.000000e+00	1.000000e+00	1.000000e+00	1.000000e+00	1.000000e+00	1.000000e+00	1.000000e+00	1.000000e+00	1.000000e+00	1.000000e+00	1.000000e+00	1.000000e+00	1.000000e+00	1.000000e+00	1.000000e+00	1.000000e+00	1.069028e+00	1.067728e+00	1.057824e+00	1.040964e+00	1.021239e+00	1.003263e+00	9.913331e-01	9.850237e-01	9.820916e-01	9.810971e-01	9.809403e-01	9.812915e-01	9.823085e-01	9.842090e-01	9.868766e-01	9.897187e-01	9.922662e-01	9.943427e-01	9.958717e-01	9.967652e-01	9.969992e-01	9.967652e-01	9.958717e-01	9.943426e-01	9.922660e-01	9.897191e-01	9.868793e-01	9.842157e-01	9.823177e-01	9.812947e-01	9.809206e-01	9.810280e-01	9.818819e-01	9.842687e-01	9.884843e-01	9.945439e-01	1.002586e+00	1.012763e+00	1.023837e+00	1.031943e+00	1.034929e+00	1.035289e+00	1.034208e+00	1.029729e+00	1.019346e+00	1.008149e+00	1.002410e+00	1.000683e+00	1.000222e+00	1.000076e+00	1.000024e+00	1.000007e+00	1.000002e+00	1.000000e+00	1.000000e+00	1.000000e+00	1.000000e+00	1.000000e+00	1.000000e+00	1.000000e+00	1.000000e+00	1.000000e+00	1.000000e+00	1.000000e+00	1.000000e+00	1.000000e+00	1.000000e+00	1.000000e+00	1.000000e+00	1.000000e+00	1.000000e+00	1.000000e+00	1.000000e+00	1.000000e+00	1.000000e+00	1.000000e+00	1.000000e+00	1.000000e+00	1.000000e+00	1.000000e+00	1.000000e+00	1.000000e+00	1.000000e+00	1.000000e+00	1.000000e+00	1.000000e+00	1.000000e+00	1.000000e+00	1.000000e+00	1.000000e+00	1.000000e+00	1.000000e+00	1.000000e+00	1.000000e+00	1.000000e+00	1.000000e+00	1.000000e+00	1.000000e+00	1.000000e+00	1.000000e+00	1.000000e+00	1.064182e+00	1.062601e+00	1.051153e+00	1.037105e+00	1.020428e+00	1.003239e+00	9.902722e-01	9.835839e-01	9.810971e-01	9.803472e-01	9.800978e-01	9.802570e-01	9.814858e-01	9.838604e-01	9.863230e-01	9.883855e-01	9.900358e-01	9.913350e-01	9.922793e-01	9.928386e-01	9.930523e-01	9.928385e-01	9.922793e-01	9.913349e-01	9.900359e-01	9.883868e-01	9.863272e-01	9.838678e-01	9.814943e-01	9.802573e-01	9.800701e-01	9.802238e-01	9.806222e-01	9.818720e-01	9.847536e-01	9.896685e-01	9.966502e-01	1.005703e+00	1.016492e+00	1.026869e+00	1.033004e+00	1.034590e+00	1.034586e+00	1.032454e+00	1.025287e+00	1.013657e+00	1.004757e+00	1.001300e+00	1.000375e+00	1.000123e+00	1.000040e+00	1.000012e+00	1.000003e+00	1.000001e+00	1.000000e+00	1.000000e+00	1.000000e+00	1.000000e+00	1.000000e+00	1.000000e+00	1.000000e+00	1.000000e+00	1.000000e+00	1.000000e+00	1.000000e+00	1.000000e+00	1.000000e+00	1.000000e+00	1.000000e+00	1.000000e+00	1.000000e+00	1.000000e+00	1.000000e+00	1.000000e+00	1.000000e+00	1.000000e+00	1.000000e+00	1.000000e+00	1.000000e+00	1.000000e+00	1.000000e+00	1.000000e+00	1.000000e+00	1.000000e+00	1.000000e+00	1.000000e+00	1.000000e+00	1.000000e+00	1.000000e+00	1.000000e+00	1.000000e+00	1.000000e+00	1.000000e+00	1.000000e+00	1.000000e+00	1.000000e+00	1.000000e+00	1.000000e+00	1.000000e+00	1.000000e+00	1.000000e+00	1.057308e+00	1.056210e+00	1.044038e+00	1.033049e+00	1.019655e+00	1.004264e+00	9.911155e-01	9.837262e-01	9.809403e-01	9.800978e-01	9.799514e-01	9.811195e-01	9.837876e-01	9.863894e-01	9.882533e-01	9.895392e-01	9.904614e-01	9.911426e-01	9.916250e-01	9.919125e-01	9.920247e-01	9.919125e-01	9.916250e-01	9.911426e-01	9.904617e-01	9.895412e-01	9.882582e-01	9.863971e-01	9.837929e-01	9.811171e-01	9.799125e-01	9.798991e-01	9.801346e-01	9.807029e-01	9.823612e-01	9.859910e-01	9.919016e-01	9.999954e-01	1.010038e+00	1.020981e+00	1.029690e+00	1.033474e+00	1.034109e+00	1.033371e+00	1.029228e+00	1.019327e+00	1.008346e+00	1.002459e+00	1.000652e+00	1.000194e+00	1.000063e+00	1.000020e+00	1.000005e+00	1.000001e+00	1.000000e+00	1.000000e+00	1.000000e+00	1.000000e+00	1.000000e+00	1.000000e+00	1.000000e+00	1.000000e+00	1.000000e+00	1.000000e+00	1.000000e+00	1.000000e+00	1.000000e+00	1.000000e+00	1.000000e+00	1.000000e+00	1.000000e+00	1.000000e+00	1.000000e+00	1.000000e+00	1.000000e+00	1.000000e+00	1.000000e+00	1.000000e+00	1.000000e+00	1.000000e+00	1.000000e+00	1.000000e+00	1.000000e+00	1.000000e+00	1.000000e+00	1.000000e+00	1.000000e+00	1.000000e+00	1.000000e+00	1.000000e+00	1.000000e+00	1.000000e+00	1.000000e+00	1.000000e+00	1.000000e+00	1.000000e+00	1.000000e+00	1.000000e+00	1.000000e+00	1.000000e+00	1.000000e+00	1.049401e+00	1.049361e+00	1.037523e+00	1.028618e+00	1.018516e+00	1.005941e+00	9.933332e-01	9.848982e-01	9.812915e-01	9.802570e-01	9.811195e-01	9.838199e-01	9.867301e-01	9.887495e-01	9.900170e-01	9.908459e-01	9.914451e-01	9.918576e-01	9.921307e-01	9.922838e-01	9.923492e-01	9.922837e-01	9.921307e-01	9.918578e-01	9.914456e-01	9.908488e-01	9.900219e-01	9.887588e-01	9.867371e-01	9.838050e-01	9.810465e-01	9.799063e-01	9.798897e-01	9.801820e-01	9.810576e-01	9.834544e-01	9.881698e-01	9.953126e-01	1.004594e+00	1.015366e+00	1.025572e+00	1.031702e+00	1.033336e+00	1.033444e+00	1.031209e+00	1.023960e+00	1.012702e+00	1.004352e+00	1.001146e+00	1.000309e+00	1.000095e+00	1.000030e+00	1.000009e+00	1.000002e+00	1.000000e+00	1.000000e+00	1.000000e+00	1.000000e+00	1.000000e+00	1.000000e+00	1.000000e+00	1.000000e+00	1.000000e+00	1.000000e+00	1.000000e+00	1.000000e+00	1.000000e+00	1.000000e+00	1.000000e+00	1.000000e+00	1.000000e+00	1.000000e+00	1.000000e+00	1.000000e+00	1.000000e+00	1.000000e+00	1.000000e+00	1.000000e+00	1.000000e+00	1.000000e+00	1.000000e+00	1.000000e+00	1.000000e+00	1.000000e+00	1.000000e+00	1.000000e+00	1.000000e+00	1.000000e+00	1.000000e+00	1.000000e+00	1.000000e+00	1.000000e+00	1.000000e+00	1.000000e+00	1.000000e+00	1.000000e+00	1.000000e+00	1.000000e+00	1.000000e+00	1.000000e+00	1.000000e+00	1.041289e+00	1.042403e+00	1.031886e+00	1.024363e+00	1.016980e+00	1.007590e+00	9.963102e-01	9.870398e-01	9.823085e-01	9.814858e-01	9.837876e-01	9.867301e-01	9.889379e-01	9.903147e-01	9.911840e-01	9.918039e-01	9.922435e-01	9.925431e-01	9.927411e-01	9.928504e-01	9.929047e-01	9.928503e-01	9.927410e-01	9.925433e-01	9.922447e-01	9.918070e-01	9.911896e-01	9.903263e-01	9.889549e-01	9.867101e-01	9.835771e-01	9.809448e-01	9.799975e-01	9.799738e-01	9.804338e-01	9.818759e-01	9.854049e-01	9.915092e-01	1.000026e+00	1.010392e+00	1.021208e+00	1.029292e+00	1.032455e+00	1.032944e+00	1.031990e+00	1.027126e+00	1.017009e+00	1.006935e+00	1.001953e+00	1.000494e+00	1.000139e+00	1.000043e+00	1.000013e+00	1.000003e+00	1.000001e+00	1.000000e+00	1.000000e+00	1.000000e+00	1.000000e+00	1.000000e+00	1.000000e+00	1.000000e+00	1.000000e+00	1.000000e+00	1.000000e+00	1.000000e+00	1.000000e+00	1.000000e+00	1.000000e+00	1.000000e+00	1.000000e+00	1.000000e+00	1.000000e+00	1.000000e+00	1.000000e+00	1.000000e+00	1.000000e+00	1.000000e+00	1.000000e+00	1.000000e+00	1.000000e+00	1.000000e+00	1.000000e+00	1.000000e+00	1.000000e+00	1.000000e+00	1.000000e+00	1.000000e+00	1.000000e+00	1.000000e+00	1.000000e+00	1.000000e+00	1.000000e+00	1.000000e+00	1.000000e+00	1.000000e+00	1.000000e+00	1.000000e+00	1.000000e+00	1.000000e+00	1.000000e+00	1.033596e+00	1.035687e+00	1.026899e+00	1.020730e+00	1.015304e+00	1.008858e+00	9.994709e-01	9.898469e-01	9.842090e-01	9.838604e-01	9.863894e-01	9.887495e-01	9.903147e-01	9.913289e-01	9.919946e-01	9.924820e-01	9.928391e-01	9.930882e-01	9.932517e-01	9.933455e-01	9.933877e-01	9.933454e-01	9.932517e-01	9.930884e-01	9.928397e-01	9.924862e-01	9.920049e-01	9.913444e-01	9.903292e-01	9.886822e-01	9.860943e-01	9.829657e-01	9.807727e-01	9.801567e-01	9.801896e-01	9.810299e-01	9.834862e-01	9.885324e-01	9.962422e-01	1.006122e+00	1.017079e+00	1.026527e+00	1.031338e+00	1.032346e+00	1.032174e+00	1.028991e+00	1.020630e+00	1.009895e+00	1.003115e+00	1.000781e+00	1.000203e+00	1.000059e+00	1.000018e+00	1.000005e+00	1.000001e+00	1.000000e+00	1.000000e+00	1.000000e+00	1.000000e+00	1.000000e+00	1.000000e+00	1.000000e+00	1.000000e+00	1.000000e+00	1.000000e+00	1.000000e+00	1.000000e+00	1.000000e+00	1.000000e+00	1.000000e+00	1.000000e+00	1.000000e+00	1.000000e+00	1.000000e+00	1.000000e+00	1.000000e+00	1.000000e+00	1.000000e+00	1.000000e+00	1.000000e+00	1.000000e+00	1.000000e+00	1.000000e+00	1.000000e+00	1.000000e+00	1.000000e+00	1.000000e+00	1.000000e+00	1.000000e+00	1.000000e+00	1.000000e+00	1.000000e+00	1.000000e+00	1.000000e+00	1.000000e+00	1.000000e+00	1.000000e+00	1.000000e+00	1.000000e+00	1.000000e+00	1.000000e+00	1.026721e+00	1.029549e+00	1.022417e+00	1.017843e+00	1.013855e+00	1.009807e+00	1.002392e+00	9.928918e-01	9.868766e-01	9.863230e-01	9.882533e-01	9.900170e-01	9.911840e-01	9.919946e-01	9.925718e-01	9.929853e-01	9.932877e-01	9.935042e-01	9.936531e-01	9.937446e-01	9.937847e-01	9.937445e-01	9.936531e-01	9.935042e-01	9.932890e-01	9.929909e-01	9.925856e-01	9.920174e-01	9.911831e-01	9.899038e-01	9.878535e-01	9.849607e-01	9.821015e-01	9.806353e-01	9.803742e-01	9.806443e-01	9.822848e-01	9.863157e-01	9.931831e-01	1.002528e+00	1.013401e+00	1.023678e+00	1.030005e+00	1.031781e+00	1.031943e+00	1.029967e+00	1.023327e+00	1.012812e+00	1.004565e+00	1.001184e+00	1.000291e+00	1.000080e+00	1.000024e+00	1.000007e+00	1.000002e+00	1.000000e+00	1.000000e+00	1.000000e+00	1.000000e+00	1.000000e+00	1.000000e+00	1.000000e+00	1.000000e+00	1.000000e+00	1.000000e+00	1.000000e+00	1.000000e+00	1.000000e+00	1.000000e+00	1.000000e+00	1.000000e+00	1.000000e+00	1.000000e+00	1.000000e+00	1.000000e+00	1.000000e+00	1.000000e+00	1.000000e+00	1.000000e+00	1.000000e+00	1.000000e+00	1.000000e+00	1.000000e+00	1.000000e+00	1.000000e+00	1.000000e+00	1.000000e+00	1.000000e+00	1.000000e+00	1.000000e+00	1.000000e+00	1.000000e+00	1.000000e+00	1.000000e+00	1.000000e+00	1.000000e+00	1.000000e+00	1.000000e+00	1.000000e+00	1.000000e+00	1.000000e+00	1.020832e+00	1.024215e+00	1.018513e+00	1.015628e+00	1.012854e+00	1.010502e+00	1.004667e+00	9.959129e-01	9.897187e-01	9.883855e-01	9.895392e-01	9.908459e-01	9.918039e-01	9.924820e-01	9.929853e-01	9.933636e-01	9.936429e-01	9.938403e-01	9.939707