# vtk DataFile Version 3.0
vtk output
ASCII
DATASET STRUCTURED_GRID
DIMENSIONS 101 101 1
POINTS 10201 double
0.000000e+00	0.000000e+00	0.0	1.000000e-02	0.000000e+00	0.0	2.000000e-02	0.000000e+00	0.0	3.000000e-02	0.000000e+00	0.0	4.000000e-02	0.000000e+00	0.0	5.000000e-02	0.000000e+00	0.0	6.000000e-02	0.000000e+00	0.0	7.000000e-02	0.000000e+00	0.0	8.000000e-02	0.000000e+00	0.0	9.000000e-02	0.000000e+00	0.0	1.000000e-01	0.000000e+00	0.0	1.100000e-01	0.000000e+00	0.0	1.200000e-01	0.000000e+00	0.0	1.300000e-01	0.000000e+00	0.0	1.400000e-01	0.000000e+00	0.0	1.500000e-01	0.000000e+00	0.0	1.600000e-01	0.000000e+00	0.0	1.700000e-01	0.000000e+00	0.0	1.800000e-01	0.000000e+00	0.0	1.900000e-01	0.000000e+00	0.0	2.000000e-01	0.000000e+00	0.0	2.100000e-01	0.000000e+00	0.0	2.200000e-01	0.000000e+00	0.0	2.300000e-01	0.000000e+00	0.0	2.400000e-01	0.000000e+00	0.0	2.500000e-01	0.000000e+00	0.0	2.600000e-01	0.000000e+00	0.0	2.700000e-01	0.000000e+00	0.0	2.800000e-01	0.000000e+00	0.0	2.900000e-01	0.000000e+00	0.0	3.000000e-01	0.000000e+00	0.0	3.100000e-01	0.000000e+00	0.0	3.200000e-01	0.000000e+00	0.0	3.300000e-01	0.000000e+00	0.0	3.400000e-01	0.000000e+00	0.0	3.500000e-01	0.000000e+00	0.0	3.600000e-01	0.000000e+00	0.0	3.700000e-01	0.000000e+00	0.0	3.800000e-01	0.000000e+00	0.0	3.900000e-01	0.000000e+00	0.0	4.000000e-01	0.000000e+00	0.0	4.100000e-01	0.000000e+00	0.0	4.200000e-01	0.000000e+00	0.0	4.300000e-01	0.000000e+00	0.0	4.400000e-01	0.000000e+00	0.0	4.500000e-01	0.000000e+00	0.0	4.600000e-01	0.000000e+00	0.0	4.700000e-01	0.000000e+00	0.0	4.800000e-01	0.000000e+00	0.0	4.900000e-01	0.000000e+00	0.0	5.000000e-01	0.000000e+00	0.0	5.100000e-01	0.000000e+00	0.0	5.200000e-01	0.000000e+00	0.0	5.300000e-01	0.000000e+00	0.0	5.400000e-01	0.000000e+00	0.0	5.500000e-01	0.000000e+00	0.0	5.600000e-01	0.000000e+00	0.0	5.700000e-01	0.000000e+00	0.0	5.800000e-01	0.000000e+00	0.0	5.900000e-01	0.000000e+00	0.0	6.000000e-01	0.000000e+00	0.0	6.100000e-01	0.000000e+00	0.0	6.200000e-01	0.000000e+00	0.0	6.300000e-01	0.000000e+00	0.0	6.400000e-01	0.000000e+00	0.0	6.500000e-01	0.000000e+00	0.0	6.600000e-01	0.000000e+00	0.0	6.700000e-01	0.000000e+00	0.0	6.800000e-01	0.000000e+00	0.0	6.900000e-01	0.000000e+00	0.0	7.000000e-01	0.000000e+00	0.0	7.100000e-01	0.000000e+00	0.0	7.200000e-01	0.000000e+00	0.0	7.300000e-01	0.000000e+00	0.0	7.400000e-01	0.000000e+00	0.0	7.500000e-01	0.000000e+00	0.0	7.600000e-01	0.000000e+00	0.0	7.700000e-01	0.000000e+00	0.0	7.800000e-01	0.000000e+00	0.0	7.900000e-01	0.000000e+00	0.0	8.000000e-01	0.000000e+00	0.0	8.100000e-01	0.000000e+00	0.0	8.200000e-01	0.000000e+00	0.0	8.300000e-01	0.000000e+00	0.0	8.400000e-01	0.000000e+00	0.0	8.500000e-01	0.000000e+00	0.0	8.600000e-01	0.000000e+00	0.0	8.700000e-01	0.000000e+00	0.0	8.800000e-01	0.000000e+00	0.0	8.900000e-01	0.000000e+00	0.0	9.000000e-01	0.000000e+00	0.0	9.100000e-01	0.000000e+00	0.0	9.200000e-01	0.000000e+00	0.0	9.300000e-01	0.000000e+00	0.0	9.400000e-01	0.000000e+00	0.0	9.500000e-01	0.000000e+00	0.0	9.600000e-01	0.000000e+00	0.0	9.700000e-01	0.000000e+00	0.0	9.800000e-01	0.000000e+00	0.0	9.900000e-01	0.000000e+00	0.0	1.000000e+00	0.000000e+00	0.0	0.000000e+00	1.000000e-02	0.0	1.000000e-02	1.000000e-02	0.0	2.000000e-02	1.000000e-02	0.0	3.000000e-02	1.000000e-02	0.0	4.000000e-02	1.000000e-02	0.0	5.000000e-02	1.000000e-02	0.0	6.000000e-02	1.000000e-02	0.0	7.000000e-02	1.000000e-02	0.0	8.000000e-02	1.000000e-02	0.0	9.000000e-02	1.000000e-02	0.0	1.000000e-01	1.000000e-02	0.0	1.100000e-01	1.000000e-02	0.0	1.200000e-01	1.000000e-02	0.0	1.300000e-01	1.000000e-02	0.0	1.400000e-01	1.000000e-02	0.0	1.500000e-01	1.000000e-02	0.0	1.600000e-01	1.000000e-02	0.0	1.700000e-01	1.000000e-02	0.0	1.800000e-01	1.000000e-02	0.0	1.900000e-01	1.000000e-02	0.0	2.000000e-01	1.000000e-02	0.0	2.100000e-01	1.000000e-02	0.0	2.200000e-01	1.000000e-02	0.0	2.300000e-01	1.000000e-02	0.0	2.400000e-01	1.000000e-02	0.0	2.500000e-01	1.000000e-02	0.0	2.600000e-01	1.000000e-02	0.0	2.700000e-01	1.000000e-02	0.0	2.800000e-01	1.000000e-02	0.0	2.900000e-01	1.000000e-02	0.0	3.000000e-01	1.000000e-02	0.0	3.100000e-01	1.000000e-02	0.0	3.200000e-01	1.000000e-02	0.0	3.300000e-01	1.000000e-02	0.0	3.400000e-01	1.000000e-02	0.0	3.500000e-01	1.000000e-02	0.0	3.600000e-01	1.000000e-02	0.0	3.700000e-01	1.000000e-02	0.0	3.800000e-01	1.000000e-02	0.0	3.900000e-01	1.000000e-02	0.0	4.000000e-01	1.000000e-02	0.0	4.100000e-01	1.000000e-02	0.0	4.200000e-01	1.000000e-02	0.0	4.300000e-01	1.000000e-02	0.0	4.400000e-01	1.000000e-02	0.0	4.500000e-01	1.000000e-02	0.0	4.600000e-01	1.000000e-02	0.0	4.700000e-01	1.000000e-02	0.0	4.800000e-01	1.000000e-02	0.0	4.900000e-01	1.000000e-02	0.0	5.000000e-01	1.000000e-02	0.0	5.100000e-01	1.000000e-02	0.0	5.200000e-01	1.000000e-02	0.0	5.300000e-01	1.000000e-02	0.0	5.400000e-01	1.000000e-02	0.0	5.500000e-01	1.000000e-02	0.0	5.600000e-01	1.000000e-02	0.0	5.700000e-01	1.000000e-02	0.0	5.800000e-01	1.000000e-02	0.0	5.900000e-01	1.000000e-02	0.0	6.000000e-01	1.000000e-02	0.0	6.100000e-01	1.000000e-02	0.0	6.200000e-01	1.000000e-02	0.0	6.300000e-01	1.000000e-02	0.0	6.400000e-01	1.000000e-02	0.0	6.500000e-01	1.000000e-02	0.0	6.600000e-01	1.000000e-02	0.0	6.700000e-01	1.000000e-02	0.0	6.800000e-01	1.000000e-02	0.0	6.900000e-01	1.000000e-02	0.0	7.000000e-01	1.000000e-02	0.0	7.100000e-01	1.000000e-02	0.0	7.200000e-01	1.000000e-02	0.0	7.300000e-01	1.000000e-02	0.0	7.400000e-01	1.000000e-02	0.0	7.500000e-01	1.000000e-02	0.0	7.600000e-01	1.000000e-02	0.0	7.700000e-01	1.000000e-02	0.0	7.800000e-01	1.000000e-02	0.0	7.900000e-01	1.000000e-02	0.0	8.000000e-01	1.000000e-02	0.0	8.100000e-01	1.000000e-02	0.0	8.200000e-01	1.000000e-02	0.0	8.300000e-01	1.000000e-02	0.0	8.400000e-01	1.000000e-02	0.0	8.500000e-01	1.000000e-02	0.0	8.600000e-01	1.000000e-02	0.0	8.700000e-01	1.000000e-02	0.0	8.800000e-01	1.000000e-02	0.0	8.900000e-01	1.000000e-02	0.0	9.000000e-01	1.000000e-02	0.0	9.100000e-01	1.000000e-02	0.0	9.200000e-01	1.000000e-02	0.0	9.300000e-01	1.000000e-02	0.0	9.400000e-01	1.000000e-02	0.0	9.500000e-01	1.000000e-02	0.0	9.600000e-01	1.000000e-02	0.0	9.700000e-01	1.000000e-02	0.0	9.800000e-01	1.000000e-02	0.0	9.900000e-01	1.000000e-02	0.0	1.000000e+00	1.000000e-02	0.0	0.000000e+00	2.000000e-02	0.0	1.000000e-02	2.000000e-02	0.0	2.000000e-02	2.000000e-02	0.0	3.000000e-02	2.000000e-02	0.0	4.000000e-02	2.000000e-02	0.0	5.000000e-02	2.000000e-02	0.0	6.000000e-02	2.000000e-02	0.0	7.000000e-02	2.000000e-02	0.0	8.000000e-02	2.000000e-02	0.0	9.000000e-02	2.000000e-02	0.0	1.000000e-01	2.000000e-02	0.0	1.100000e-01	2.000000e-02	0.0	1.200000e-01	2.000000e-02	0.0	1.300000e-01	2.000000e-02	0.0	1.400000e-01	2.000000e-02	0.0	1.500000e-01	2.000000e-02	0.0	1.600000e-01	2.000000e-02	0.0	1.700000e-01	2.000000e-02	0.0	1.800000e-01	2.000000e-02	0.0	1.900000e-01	2.000000e-02	0.0	2.000000e-01	2.000000e-02	0.0	2.100000e-01	2.000000e-02	0.0	2.200000e-01	2.000000e-02	0.0	2.300000e-01	2.000000e-02	0.0	2.400000e-01	2.000000e-02	0.0	2.500000e-01	2.000000e-02	0.0	2.600000e-01	2.000000e-02	0.0	2.700000e-01	2.000000e-02	0.0	2.800000e-01	2.000000e-02	0.0	2.900000e-01	2.000000e-02	0.0	3.000000e-01	2.000000e-02	0.0	3.100000e-01	2.000000e-02	0.0	3.200000e-01	2.000000e-02	0.0	3.300000e-01	2.000000e-02	0.0	3.400000e-01	2.000000e-02	0.0	3.500000e-01	2.000000e-02	0.0	3.600000e-01	2.000000e-02	0.0	3.700000e-01	2.000000e-02	0.0	3.800000e-01	2.000000e-02	0.0	3.900000e-01	2.000000e-02	0.0	4.000000e-01	2.000000e-02	0.0	4.100000e-01	2.000000e-02	0.0	4.200000e-01	2.000000e-02	0.0	4.300000e-01	2.000000e-02	0.0	4.400000e-01	2.000000e-02	0.0	4.500000e-01	2.000000e-02	0.0	4.600000e-01	2.000000e-02	0.0	4.700000e-01	2.000000e-02	0.0	4.800000e-01	2.000000e-02	0.0	4.900000e-01	2.000000e-02	0.0	5.000000e-01	2.000000e-02	0.0	5.100000e-01	2.000000e-02	0.0	5.200000e-01	2.000000e-02	0.0	5.300000e-01	2.000000e-02	0.0	5.400000e-01	2.000000e-02	0.0	5.500000e-01	2.000000e-02	0.0	5.600000e-01	2.000000e-02	0.0	5.700000e-01	2.000000e-02	0.0	5.800000e-01	2.000000e-02	0.0	5.900000e-01	2.000000e-02	0.0	6.000000e-01	2.000000e-02	0.0	6.100000e-01	2.000000e-02	0.0	6.200000e-01	2.000000e-02	0.0	6.300000e-01	2.000000e-02	0.0	6.400000e-01	2.000000e-02	0.0	6.500000e-01	2.000000e-02	0.0	6.600000e-01	2.000000e-02	0.0	6.700000e-01	2.000000e-02	0.0	6.800000e-01	2.000000e-02	0.0	6.900000e-01	2.000000e-02	0.0	7.000000e-01	2.000000e-02	0.0	7.100000e-01	2.000000e-02	0.0	7.200000e-01	2.000000e-02	0.0	7.300000e-01	2.000000e-02	0.0	7.400000e-01	2.000000e-02	0.0	7.500000e-01	2.000000e-02	0.0	7.600000e-01	2.000000e-02	0.0	7.700000e-01	2.000000e-02	0.0	7.800000e-01	2.000000e-02	0.0	7.900000e-01	2.000000e-02	0.0	8.000000e-01	2.000000e-02	0.0	8.100000e-01	2.000000e-02	0.0	8.200000e-01	2.000000e-02	0.0	8.300000e-01	2.000000e-02	0.0	8.400000e-01	2.000000e-02	0.0	8.500000e-01	2.000000e-02	0.0	8.600000e-01	2.000000e-02	0.0	8.700000e-01	2.000000e-02	0.0	8.800000e-01	2.000000e-02	0.0	8.900000e-01	2.000000e-02	0.0	9.000000e-01	2.000000e-02	0.0	9.100000e-01	2.000000e-02	0.0	9.200000e-01	2.000000e-02	0.0	9.300000e-01	2.000000e-02	0.0	9.400000e-01	2.000000e-02	0.0	9.500000e-01	2.000000e-02	0.0	9.600000e-01	2.000000e-02	0.0	9.700000e-01	2.000000e-02	0.0	9.800000e-01	2.000000e-02	0.0	9.900000e-01	2.000000e-02	0.0	1.000000e+00	2.000000e-02	0.0	0.000000e+00	3.000000e-02	0.0	1.000000e-02	3.000000e-02	0.0	2.000000e-02	3.000000e-02	0.0	3.000000e-02	3.000000e-02	0.0	4.000000e-02	3.000000e-02	0.0	5.000000e-02	3.000000e-02	0.0	6.000000e-02	3.000000e-02	0.0	7.000000e-02	3.000000e-02	0.0	8.000000e-02	3.000000e-02	0.0	9.000000e-02	3.000000e-02	0.0	1.000000e-01	3.000000e-02	0.0	1.100000e-01	3.000000e-02	0.0	1.200000e-01	3.000000e-02	0.0	1.300000e-01	3.000000e-02	0.0	1.400000e-01	3.000000e-02	0.0	1.500000e-01	3.000000e-02	0.0	1.600000e-01	3.000000e-02	0.0	1.700000e-01	3.000000e-02	0.0	1.800000e-01	3.000000e-02	0.0	1.900000e-01	3.000000e-02	0.0	2.000000e-01	3.000000e-02	0.0	2.100000e-01	3.000000e-02	0.0	2.200000e-01	3.000000e-02	0.0	2.300000e-01	3.000000e-02	0.0	2.400000e-01	3.000000e-02	0.0	2.500000e-01	3.000000e-02	0.0	2.600000e-01	3.000000
[...]
POINT_DATA 10201

SCALARS Height double 1
LOOKUP_TABLE default
9.988738e-01	9.988998e-01	9.988815e-01	9.988777e-01	9.988772e-01	9.988787e-01	9.988799e-01	9.988749e-01	9.988691e-01	9.988635e-01	9.988565e-01	9.988488e-01	9.988407e-01	9.988336e-01	9.988291e-01	9.988277e-01	9.988290e-01	9.988293e-01	9.988273e-01	9.988207e-01	9.988078e-01	9.987864e-01	9.987638e-01	9.987391e-01	9.987178e-01	9.986988e-01	9.986818e-01	9.986659e-01	9.986493e-01	9.986311e-01	9.986111e-01	9.985891e-01	9.985654e-01	9.985399e-01	9.985126e-01	9.984829e-01	9.984508e-01	9.984155e-01	9.983768e-01	9.983350e-01	9.982898e-01	9.982412e-01	9.981891e-01	9.981329e-01	9.980723e-01	9.980067e-01	9.979353e-01	9.978576e-01	9.977723e-01	9.976783e-01	9.975736e-01	9.974564e-01	9.973252e-01	9.971785e-01	9.970145e-01	9.968291e-01	9.966124e-01	9.963455e-01	9.959947e-01	9.955098e-01	9.948234e-01	9.938674e-01	9.926191e-01	9.911701e-01	9.897584e-01	9.886705e-01	9.880408e-01	9.877942e-01	9.878004e-01	9.882356e-01	9.895892e-01	9.921432e-01	9.958626e-01	1.000599e+00	1.006305e+00	1.013295e+00	1.022054e+00	1.031962e+00	1.040343e+00	1.044920e+00	1.045985e+00	1.044666e+00	1.039662e+00	1.030823e+00	1.020583e+00	1.011636e+00	1.004559e+00	9.988423e-01	9.941653e-01	9.905610e-01	9.881394e-01	9.868822e-01	9.864598e-01	9.863777e-01	9.865268e-01	9.870491e-01	9.879798e-01	9.891442e-01	9.902502e-01	9.909577e-01	9.914220e-01	9.988865e-01	9.989150e-01	9.988835e-01	9.988796e-01	9.988793e-01	9.988806e-01	9.988809e-01	9.988775e-01	9.988733e-01	9.988664e-01	9.988584e-01	9.988498e-01	9.988407e-01	9.988326e-01	9.988268e-01	9.988238e-01	9.988230e-01	9.988220e-01	9.988174e-01	9.988068e-01	9.987938e-01	9.987725e-01	9.987519e-01	9.987312e-01	9.987109e-01	9.986955e-01	9.986802e-01	9.986649e-01	9.986490e-01	9.986313e-01	9.986115e-01	9.985897e-01	9.985661e-01	9.985405e-01	9.985131e-01	9.984832e-01	9.984507e-01	9.984151e-01	9.983761e-01	9.983340e-01	9.982885e-01	9.982391e-01	9.981863e-01	9.981293e-01	9.980678e-01	9.980013e-01	9.979291e-01	9.978505e-01	9.977644e-01	9.976696e-01	9.975642e-01	9.974464e-01	9.973146e-01	9.971674e-01	9.970027e-01	9.968164e-01	9.965987e-01	9.963304e-01	9.959782e-01	9.954919e-01	9.948048e-01	9.938495e-01	9.926008e-01	9.911437e-01	9.897057e-01	9.885712e-01	9.879355e-01	9.877606e-01	9.877864e-01	9.882187e-01	9.895414e-01	9.920680e-01	9.957813e-01	1.000489e+00	1.006126e+00	1.013095e+00	1.022115e+00	1.032465e+00	1.040921e+00	1.045048e+00	1.045994e+00	1.044834e+00	1.040258e+00	1.031292e+00	1.020611e+00	1.011423e+00	1.004376e+00	9.987278e-01	9.940812e-01	9.904844e-01	9.880911e-01	9.868635e-01	9.864428e-01	9.863339e-01	9.864159e-01	9.869562e-01	9.879311e-01	9.891186e-01	9.902335e-01	9.909254e-01	9.913874e-01	9.988944e-01	9.989246e-01	9.988901e-01	9.988854e-01	9.988835e-01	9.988837e-01	9.988831e-01	9.988800e-01	9.988746e-01	9.988678e-01	9.988598e-01	9.988511e-01	9.988417e-01	9.988331e-01	9.988266e-01	9.988225e-01	9.988212e-01	9.988233e-01	9.988162e-01	9.988071e-01	9.987935e-01	9.987723e-01	9.987512e-01	9.987280e-01	9.987079e-01	9.986892e-01	9.986755e-01	9.986605e-01	9.986452e-01	9.986282e-01	9.986093e-01	9.985883e-01	9.985656e-01	9.985407e-01	9.985135e-01	9.984842e-01	9.984522e-01	9.984175e-01	9.983796e-01	9.983384e-01	9.982935e-01	9.982447e-01	9.981919e-01	9.981350e-01	9.980736e-01	9.980072e-01	9.979352e-01	9.978567e-01	9.977706e-01	9.976758e-01	9.975703e-01	9.974526e-01	9.973211e-01	9.971741e-01	9.970094e-01	9.968218e-01	9.966011e-01	9.963279e-01	9.959691e-01	9.954747e-01	9.947808e-01	9.938270e-01	9.925954e-01	9.911646e-01	9.897324e-01	9.885908e-01	9.880005e-01	9.878702e-01	9.879151e-01	9.883691e-01	9.896891e-01	9.921720e-01	9.958474e-01	1.000494e+00	1.006045e+00	1.012987e+00	1.022176e+00	1.032669e+00	1.040835e+00	1.044560e+00	1.045452e+00	1.044352e+00	1.040207e+00	1.031485e+00	1.020660e+00	1.011331e+00	1.004317e+00	9.987483e-01	9.941510e-01	9.905896e-01	9.882322e-01	9.870046e-01	9.865619e-01	9.864392e-01	9.864721e-01	9.869748e-01	9.879511e-01	9.891227e-01	9.902092e-01	9.908783e-01	9.913303e-01	9.988935e-01	9.989218e-01	9.988882e-01	9.988817e-01	9.988784e-01	9.988779e-01	9.988774e-01	9.988749e-01	9.988706e-01	9.988649e-01	9.988579e-01	9.988503e-01	9.988422e-01	9.988346e-01	9.988288e-01	9.988254e-01	9.988235e-01	9.988250e-01	9.988177e-01	9.988089e-01	9.987946e-01	9.987731e-01	9.987504e-01	9.987282e-01	9.987079e-01	9.986903e-01	9.986755e-01	9.986605e-01	9.986449e-01	9.986278e-01	9.986089e-01	9.985876e-01	9.985643e-01	9.985391e-01	9.985116e-01	9.984818e-01	9.984495e-01	9.984146e-01	9.983767e-01	9.983355e-01	9.982905e-01	9.982413e-01	9.981878e-01	9.981302e-01	9.980679e-01	9.980009e-01	9.979283e-01	9.978493e-01	9.977626e-01	9.976670e-01	9.975609e-01	9.974427e-01	9.973110e-01	9.971639e-01	9.969984e-01	9.968089e-01	9.965837e-01	9.963031e-01	9.959339e-01	9.954260e-01	9.947174e-01	9.937536e-01	9.925253e-01	9.911007e-01	9.896642e-01	9.885536e-01	9.880530e-01	9.879641e-01	9.880272e-01	9.885197e-01	9.898731e-01	9.923708e-01	9.960190e-01	1.000632e+00	1.006116e+00	1.013036e+00	1.022334e+00	1.032815e+00	1.040589e+00	1.044077e+00	1.044932e+00	1.043870e+00	1.039980e+00	1.031635e+00	1.020814e+00	1.011406e+00	1.004417e+00	9.988992e-01	9.943247e-01	9.907787e-01	9.883998e-01	9.871346e-01	9.866598e-01	9.865203e-01	9.865070e-01	9.869253e-01	9.878705e-01	9.890355e-01	9.901076e-01	9.907621e-01	9.912157e-01	9.988959e-01	9.989213e-01	9.988871e-01	9.988795e-01	9.988752e-01	9.988743e-01	9.988740e-01	9.988714e-01	9.988671e-01	9.988616e-01	9.988549e-01	9.988480e-01	9.988406e-01	9.988336e-01	9.988281e-01	9.988246e-01	9.988228e-01	9.988227e-01	9.988159e-01	9.988064e-01	9.987911e-01	9.987695e-01	9.987462e-01	9.987244e-01	9.987045e-01	9.986878e-01	9.986726e-01	9.986577e-01	9.986419e-01	9.986246e-01	9.986053e-01	9.985843e-01	9.985611e-01	9.985358e-01	9.985083e-01	9.984783e-01	9.984459e-01	9.984109e-01	9.983732e-01	9.983321e-01	9.982871e-01	9.982377e-01	9.981838e-01	9.981255e-01	9.980625e-01	9.979949e-01	9.979219e-01	9.978424e-01	9.977552e-01	9.976588e-01	9.975518e-01	9.974331e-01	9.973012e-01	9.971536e-01	9.969867e-01	9.967940e-01	9.965628e-01	9.962723e-01	9.958887e-01	9.953627e-01	9.946351e-01	9.936581e-01	9.924245e-01	9.909934e-01	9.895687e-01	9.885478e-01	9.881558e-01	9.881008e-01	9.881828e-01	9.887213e-01	9.901202e-01	9.926452e-01	9.962814e-01	1.000839e+00	1.006273e+00	1.013212e+00	1.022546e+00	1.032808e+00	1.040184e+00	1.043474e+00	1.044295e+00	1.043266e+00	1.039585e+00	1.031652e+00	1.021044e+00	1.011602e+00	1.004600e+00	9.991206e-01	9.945881e-01	9.910425e-01	9.886302e-01	9.873117e-01	9.867902e-01	9.866325e-01	9.865812e-01	9.868928e-01	9.877560e-01	9.888986e-01	9.899626e-01	9.906102e-01	9.910670e-01	9.988974e-01	9.989187e-01	9.988842e-01	9.988764e-01	9.988720e-01	9.988706e-01	9.988704e-01	9.988677e-01	9.988634e-01	9.988576e-01	9.988516e-01	9.988454e-01	9.988389e-01	9.988327e-01	9.988276e-01	9.988240e-01	9.988217e-01	9.988197e-01	9.988140e-01	9.988026e-01	9.987868e-01	9.987659e-01	9.987422e-01	9.987210e-01	9.987014e-01	9.986859e-01	9.986708e-01	9.986561e-01	9.986402e-01	9.986227e-01	9.986032e-01	9.985820e-01	9.985590e-01	9.985338e-01	9.985061e-01	9.984758e-01	9.984429e-01	9.984074e-01	9.983691e-01	9.983275e-01	9.982820e-01	9.982321e-01	9.981776e-01	9.981184e-01	9.980546e-01	9.979862e-01	9.979125e-01	9.978324e-01	9.977444e-01	9.976471e-01	9.975393e-01	9.974198e-01	9.972871e-01	9.971384e-01	9.969692e-01	9.967718e-01	9.965333e-01	9.962303e-01	9.958282e-01	9.952803e-01	9.945316e-01	9.935369e-01	9.922818e-01	9.908355e-01	9.894576e-01	9.885783e-01	9.882914e-01	9.882507e-01	9.883695e-01	9.889699e-01	9.904344e-01	9.929985e-01	9.966204e-01	1.001115e+00	1.006520e+00	1.013510e+00	1.022775e+00	1.032633e+00	1.039627e+00	1.042776e+00	1.043573e+00	1.042556e+00	1.039035e+00	1.031510e+00	1.021308e+00	1.011931e+00	1.004870e+00	9.994116e-01	9.949263e-01	9.913849e-01	9.889255e-01	9.875331e-01	9.869458e-01	9.867661e-01	9.866775e-01	9.868767e-01	9.876179e-01	9.887095e-01	9.897682e-01	9.904163e-01	9.908729e-01	9.988932e-01	9.989127e-01	9.988796e-01	9.988727e-01	9.988692e-01	9.988679e-01	9.988676e-01	9.988653e-01	9.988605e-01	9.988554e-01	9.988497e-01	9.988439e-01	9.988379e-01	9.988323e-01	9.988274e-01	9.988234e-01	9.988199e-01	9.988162e-01	9.988096e-01	9.987966e-01	9.987809e-01	9.987604e-01	9.987375e-01	9.987162e-01	9.986969e-01	9.986820e-01	9.986675e-01	9.986529e-01	9.986372e-01	9.986197e-01	9.986000e-01	9.985785e-01	9.985554e-01	9.985301e-01	9.985024e-01	9.984720e-01	9.984389e-01	9.984027e-01	9.983636e-01	9.983213e-01	9.982753e-01	9.982249e-01	9.981699e-01	9.981102e-01	9.980457e-01	9.979764e-01	9.979020e-01	9.978212e-01	9.977326e-01	9.976346e-01	9.975259e-01	9.974053e-01	9.972710e-01	9.971200e-01	9.969470e-01	9.967435e-01	9.964951e-01	9.961769e-01	9.957533e-01	9.951768e-01	9.943991e-01	9.933784e-01	9.920947e-01	9.906396e-01	9.893579e-01	9.886450e-01	9.884455e-01	9.884273e-01	9.885924e-01	9.892699e-01	9.908182e-01	9.934256e-01	9.970286e-01	1.001475e+00	1.006888e+00	1.013924e+00	1.022986e+00	1.032337e+00	1.038912e+00	1.041962e+00	1.042754e+00	1.041732e+00	1.038329e+00	1.031247e+00	1.021569e+00	1.012386e+00	1.005266e+00	9.997820e-01	9.953313e-01	9.917997e-01	9.892900e-01	9.878069e-01	9.871376e-01	9.869127e-01	9.868018e-01	9.868866e-01	9.874730e-01	9.884752e-01	9.895168e-01	9.901629e-01	9.906314e-01	9.988844e-01	9.989012e-01	9.988729e-01	9.988682e-01	9.988654e-01	9.988640e-01	9.988640e-01	9.988620e-01	9.988578e-01	9.988534e-01	9.988485e-01	9.988435e-01	9.988379e-01	9.988326e-01	9.988277e-01	9.988233e-01	9.988189e-01	9.988129e-01	9.988040e-01	9.987910e-01	9.987751e-01	9.987540e-01	9.987327e-01	9.987120e-01	9.986927e-01	9.986776e-01	9.986629e-01	9.986485e-01	9.986331e-01	9.986155e-01	9.985958e-01	9.985742e-01	9.985507e-01	9.985251e-01	9.984972e-01	9.984667e-01	9.984332e-01	9.983964e-01	9.983564e-01	9.983130e-01	9.982660e-01	9.982150e-01	9.981595e-01	9.980992e-01	9.980341e-01	9.979640e-01	9.978886e-01	9.978072e-01	9.977182e-01	9.976200e-01	9.975108e-01	9.973889e-01	9.972525e-01	9.970982e-01	9.969205e-01	9.967099e-01	9.964487e-01	9.961130e-01	9.956640e-01	9.950565e-01	9.942427e-01	9.931777e-01	9.918534e-01	9.904213e-01	9.892833e-01	9.887462e-01	9.886234e-01	9.886284e-01	9.888543e-01	9.896286e-01	9.912728e-01	9.939216e-01	9.975018e-01	1.001926e+00	1.007383e+00	1.014418e+00	1.023161e+00	1.031910e+00	1.038057e+00	1.041027e+00	1.041830e+00	1.040793e+00	1.037485e+00	1.030876e+00	1.021805e+00	1.012919e+00	1.005781e+00	1.000244e+00	9.958045e-01	9.922825e-01	9.897225e-01	9.881377e-01	9.873653e-01	9.870793e-01	9.869481e-01	9.869272e-01	9.873348e-01	9.882065e-01	9.892045e-01	9.898561e-01	9.903396e-01	9.988728e-01	9.988901e-01	9.988669e-01	9.988639e-01	9.988618e-01	9.988608e-01	9.988596e-01	9.988579e-01	9.988540e-01	9.988502e-01	9.988464e-01	9.988421e-01	9.988368e-01	9.988311e-01	9.988260e-01	9.988210e-01	9.988153e-01	9.988085e-01	9.987982e-01	9.987859e-01	9.987688e-01	9.987492e-01	9.987285e-01	9.987074e-01	9.986906e-01	9.986740e-01	9.986590e-01	9.986442e-01	9.986285e-01	9.986111e-01	9.985913e-01	9.985695e-01	9.985454e-01	9.985195e-01	9.984908e-01	9.984598e-01	9.984259e-01	9.983887e-01	9.983479e-01	9.983036e-01	9.982556e-01	9.982038e-01	9.981476e-01	9.980867e-01	9.980208e-01	9.979497e-01	9.978730e-01	9.977904e-01	9.977006e-01	9.976019e-01	9.974919e-01	9.973684e-01	9.972291e-01	9.970708e-01	9.968873e-01	9.966676e-01	9.963934e-01	9.960352e-01	9.955566e-01	9.949130e-01	9.940544e-01	9.929339e-01	9.915720e-01	9.902022e-01	9.892488e-01	9.888816e-01	9.888216e-01	9.888555e-01	9.891624e-01	9.900518e-01	9.917988e-01	9.944850e-01	9.980450e-01	1.002466e+00	1.007970e+00	1.014958e+00	1.023294e+00	1.031367e+00	1.037079e+00	1.039981e+00	1.040798e+00	1.039737e+00	1.036517e+00	1.030394e+00	1.022004e+00	1.013500e+00	1.006394e+00	1.000803e+00	9.963539e-01	9.928313e-01	9.902191e-01	9.885260e-01	9.876333e-01	9.872693e-01	9.871059e-01	9.870050e-01	9.872195e-01	9.879138e-01	9.888399e-01	9.894913e-01	9.899935e-01	9.988630e-01	9.988789e-01	9.988610e-01	9.988601e-01	9.988584e-01	9.988571e-01	9.988558e-01	9.988540e-01	9.988506e-01	9.988471e-01	9.988432e-01	9.988392e-01	9.988341e-01	9.988285e-01	9.988223e-01	9.988163e-01	9.988100e-01	9.988020e-01	9.987905e-01	9.987771e-01	9.987615e-01	9.987433e-01	9.987233e-01	9.987056e-01	9.986872e-01	9.986707e-01	9.986551e-01	9.986401e-01	9.986244e-01	9.986069e-01	9.985871e-01	9.985648e-01	9.985402e-01	9.985131e-01	9.984834e-01	9.984515e-01	9.984168e-01	9.983790e-01	9.983377e-01	9.982926e-01	9.982439e-01	9.981912e-01	9.981345e-01	9.980731e-01	9.980066e-01	9.979346e-01	9.978568e-01	9.977728e-01	9.976816e-01	9.975816e-01	9.974700e-01	9.973440e-01	9.972009e-01	9.970374e-01	9.968467e-01	9.966159e-01	9.963244e-01	9.959417e-01	9.954294e-01	9.947419e-01	9.938252e-01	9.926396e-01	9.912581e-01	9.900009e-01	9.892685e-01	9.890534e-01	9.890336e-01	9.891158e-01	9.895227e-01	9.905454e-01	9.923967e-01	9.951174e-01	9.986657e-01	1.003093e+00	1.008630e+00	1.015517e+00	1.023375e+00	1.030732e+00	1.035992e+00	1.038829e+00	1.039653e+00	1.038565e+00	1.035438e+00	1.029815e+00	1.022155e+00	1.014107e+00	1.007092e+00	1.001460e+00	9.969841e-01	9.934451e-01	9.907779e-01	9.889732e-01	9.879471e-01	9.874800e-01	9.872762e-01	9.871165e-01	9.871404e-01	9.876105e-01	9.884220e-01	9.890596e-01	9.895798e-01	9.988534e-01	9.988676e-01	9.988549e-01	9.988558e-01	9.988545e-01	9.988528e-01	9.988512e-01	9.988498e-01	9.988472e-01	9.988435e-01	9.988399e-01	9.988350e-01	9.988296e-01	9.988231e-01	9.988172e-01	9.988107e-01	9.988032e-01	9.987938e-01	9.987821e-01	9.987678e-01	9.987523e-01	9.987355e-01	9.987180e-01	9.987002e-01	9.986826e-01	9.986663e-01	9.986507e-01	9.986355e-01	9.986200e-01	9.986024e-01	9.985825e-01	9.985597e-01	9.985344e-01	9.985063e-01	9.984753e-01	9.984421e-01	9.984062e-01	9.983675e-01	9.983255e-01	9.982798e-01	9.982304e-01	9.981770e-01	9.981195e-01	9.980576e-01	9.979907e-01	9.979182e-01	9.978398e-01	9.977546e-01	9.976617e-01	9.975593e-01	9.974451e-01	9.973159e-01	9.971687e-01	9.969992e-01	9.967992e-01	9.965550e-01	9.962429e-01	9.958307e-01	9.952784e-01	9.945368e-01	9.935488e-01	9.922959e-01	9.909264e-01	9.898400e-01	9.893486e-01	9.892521e-01	9.892600e-01	9.894137e-01	9.899441e-01	9.911122e-01	9.930675e-01	9.958216e-01	9.993640e-01	1.003797e+00	1.009340e+00	1.016071e+00	1.023393e+00	1.030011e+00	1.034814e+00	1.037574e+00	1.038399e+00	1.037291e+00	1.034259e+00	1.029145e+00	1.022244e+00	1.014721e+00	1.007855e+00	1.002202e+00	9.976922e-01	9.941266e-01	9.914007e-01	9.894841e-01	9.883143e-01	9.877212e-01	9.874467e-01	9.872474e-01	9.871099e-01	9.873190e-01	9.879541e-01	9.885469e-01	9.890754e-01	9.988456e-01	9.988565e-01	9.988487e-01	9.988507e-01	9.988494e-01	9.988476e-01	9.988461e-01	9.988454e-01	9.988432e-01	9.988398e-01	9.988353e-01	9.988309e-01	9.988245e-01	9.988181e-01	9.988112e-01	9.988039e-01	9.987956e-01	9.987854e-01	9.987730e-01	9.987597e-01	9.987448e-01	9.987298e-01	9.987122e-01	9.986950e-01	9.986776e-01	9.986612e-01	9.986456e-01	9.986302e-01	9.986137e-01	9.985961e-01	9.985761e-01	9.985531e-01	9.985271e-01	9.984983e-01	9.984662e-01	9.984318e-01	9.983946e-01	9.983548e-01	9.983119e-01	9.982655e-01	9.982153e-01	9.981611e-01	9.981027e-01	9.980401e-01	9.979727e-01	9.978999e-01	9.978209e-01	9.977345e-01	9.976395e-01	9.975342e-01	9.974164e-01	9.972835e-01	9.971316e-01	9.969551e-01	9.967451e-01	9.964842e-01	9.961474e-01	9.957003e-01	9.950997e-01	9.942913e-01	9.932203e-01	9.919051e-01	9.906010e-01	9.897527e-01	9.894799e-01	9.894607e-01	9.895067e-01	9.897565e-01	9.904348e-01	9.917542e-01	9.938116e-01	9.965985e-01	1.000135e+00	1.004562e+00	1.010077e+00	1.016595e+00	1.023338e+00	1.029212e+00	1.033559e+00	1.036222e+00	1.037039e+00	1.035918e+00	1.033002e+00	1.028397e+00	1.022264e+00	1.015316e+00	1.008652e+00	1.003006e+00	9.984728e-01	9.948801e-01	9.920912e-01	9.900618e-01	9.887458e-01	9.880037e-01	9.876253e-01	9.873808e-01	9.871306e-01	9.870717e-01	9.874511e-01	9.879407e-01	9.884550e-01	9.988396e-01	9.988463e-01	9.988415e-01	9.988441e-01	9.988429e-01	9.988415e-01	9.988404e-01	9.988401e-01	9.988385e-01	9.988350e-01	9.988302e-01	9.988247e-01	9.988190e-01	9.988121e-01	9.988054e-01	9.987975e-01	9.987885e-01	9.987776e-01	9.987647e-01	9.987505e-01	9.987357e-01	9.987210e-01	9.987058e-01	9.986894e-01	9.986725e-01	9.986565e-01	9.986398e-01	9.986229e-01	9.986060e-01	9.985875e-01	9.985672e-01	9.985439e-01	9.985178e-01	9.984879e-01	9.984553e-01	9.984199e-01	9.983819e-01	9.983411e-01	9.982973e-01	9.982502e-01	9.981992e-01	9.981442e-01	9.980851e-01	9.980217e-01	9.979536e-01	9.978801e-01	9.977999e-01	9.977118e-01	9.976141e-01	9.975053e-01	9.973832e-01	9.972456e-01	9.970884e-01	9.969045e-01	9.966817e-01	9.964010e-01	9.960347e-01	9.955460e-01	9.948868e-01	9.939971e-01	9.928324e-01	9.914777e-01	9.903156e-01	9.897643e-01	9.896604e-01	9.896709e-01	9.897836e-01	9.901601e-01	9.910022e-01	9.924732e-01	9.946274e-01	9.974460e-01	1.000969e+00	1.005369e+00	1.010817e+00	1.017066e+00	1.023198e+00	1.028350e+00	1.032244e+00	1.034780e+00	1.035577e+00	1.034458e+00	1.031688e+00	1.027590e+00	1.022208e+00	1.015861e+00	1.009450e+00	1.003852e+00	9.993207e-01	9.957084e-01	9.928534e-01	9.907098e-01	9.892473e-01	9.883455e-01	9.878281e-01	9.875029e-01	9.871837e-01	9.868946e-01	9.869470e-01	9.872414e-01	9.876988e-01	9.988336e-01	9.988379e-01	9.988334e-01	9.988366e-01	9.988359e-01	9.988351e-01	9.988344e-01	9.988343e-01	9.988324e-01	9.988290e-01	9.988234e-01	9.988180e-01	9.988120e-01	9.988056e-01	9.987985e-01	9.987904e-01	9.987804e-01	9.987688e-01	9.987556e-01	9.987417e-01	9.987271e-01	9.987133e-01	9.986990e-01	9.986834e-01	9.986671e-01	9.986502e-01	9.986326e-01	9.986150e-01	9.985964e-01	9.985774e-01	9.985567e-01	9.985322e-01	9.985052e-01	9.984751e-01	9.984419e-01	9.984061e-01	9.983675e-01	9.983260e-01	9.982814e-01	9.982335e-01	9.981819e-01	9.981265e-01	9.980671e-01	9.980032e-01	9.979343e-01	9.978594e-01	9.977773e-01	9.976864e-01	9.975852e-01	9.974723e-01	9.973455e-01	9.972024e-01	9.970386e-01	9.968449e-01	9.966071e-01	9.963028e-01	9.959015e-01	9.953626e-01	9.946317e-01	9.936429e-01	9.923768e-01	9.910399e-01	9.901356e-01	9.898583e-01	9.898458e-01	9.898952e-01	9.901063e-01	9.906374e-01	9.916544e-01	9.932708e-01	9.955122e-01	9.983584e-01	1.001858e+00	1.006201e+00	1.011532e+00	1.017453e+00	1.022979e+00	1.027435e+00	1.030889e+00	1.033258e+00	1.034018e+00	1.032925e+00	1.030337e+00	1.026739e+00	1.022077e+00	1.016327e+00	1.010217e+00	1.004721e+00	1.000227e+00	9.966076e-01	9.936911e-01	9.914349e-01	9.898207e-01	9.887534e-01	9.880758e-01	9.876229e-01	9.872347e-01	9.867864e-01	9.864879e-01	9.864699e-01	9.868004e-01	9.988281e-01	9.988301e-01	9.988256e-01	9.988295e-01	9.988287e-01	9.988282e-01	9.988276e-01	9.988276e-01	9.988258e-01	9.988213e-01	9.988159e-01	9.988102e-01	9.988047e-01	9.987982e-01	9.987907e-01	9.987820e-01	9.987711e-01	9.987590e-01	9.987452e-01	9.987310e-01	9.987165e-01	9.987038e-01	9.986910e-01	9.986766e-01	9.986607e-01	9.986429e-01	9.986243e-01	9.986064e-01	9.985877e-01	9.985668e-01	9.985443e-01	9.985192e-01	9.984914e-01	9.984606e-01	9.984270e-01	9.983906e-01	9.983514e-01	9.983092e-01	9.982636e-01	9.982148e-01	9.981628e-01	9.981072e-01	9.980479e-01	9.979838e-01	9.979141e-01	9.978373e-01	9.977525e-01	9.976582e-01	9.975529e-01	9.974352e-01	9.973035e-01	9.971546e-01	9.969823e-01	9.967768e-01	9.965202e-01	9.961873e-01	9.957440e-01	9.951442e-01	9.943235e-01	9.932138e-01	9.918590e-01	9.906590e-01	9.900988e-01	9.900076e-01	9.900285e-01	9.901479e-01	9.904921e-01	9.912001e-01	9.923966e-01	9.941475e-01	9.964606e-01	9.993256e-01	1.002789e+00	1.007035e+00	1.012188e+00	1.017731e+00	1.022648e+00	1.026485e+00	1.029514e+00	1.031674e+00	1.032376e+00	1.031342e+00	1.028973e+00	1.025846e+00	1.021854e+00	1.016683e+00	1.010923e+00	1.005599e+00	1.001180e+00	9.975660e-01	9.946040e-01	9.922463e-01	9.904737e-01	9.892276e-01	9.883803e-01	9.877687e-01	9.872593e-01	9.867070e-01	9.861037e-01	9.856692e-01	9.857751e-01	9.988234e-01	9.988229e-01	9.988184e-01	9.988223e-01	9.988217e-01	9.988208e-01	9.988199e-01	9.988198e-01	9.988176e-01	9.988127e-01	9.988070e-01	9.988013e-01	9.987958e-01	9.987897e-01	9.987820e-01	9.987710e-01	9.987611e-01	9.987486e-01	9.987339