# vtk DataFile Version 3.0
vtk output
ASCII
DATASET STRUCTURED_GRID
DIMENSIONS 101 101 1
POINTS 10201 double
0.000000e+00	0.000000e+00	0.0	1.000000e-02	0.000000e+00	0.0	2.000000e-02	0.000000e+00	0.0	3.000000e-02	0.000000e+00	0.0	4.000000e-02	0.000000e+00	0.0	5.000000e-02	0.000000e+00	0.0	6.000000e-02	0.000000e+00	0.0	7.000000e-02	0.000000e+00	0.0	8.000000e-02	0.000000e+00	0.0	9.000000e-02	0.000000e+00	0.0	1.000000e-01	0.000000e+00	0.0	1.100000e-01	0.000000e+00	0.0	1.200000e-01	0.000000e+00	0.0	1.300000e-01	0.000000e+00	0.0	1.400000e-01	0.000000e+00	0.0	1.500000e-01	0.000000e+00	0.0	1.600000e-01	0.000000e+00	0.0	1.700000e-01	0.000000e+00	0.0	1.800000e-01	0.000000e+00	0.0	1.900000e-01	0.000000e+00	0.0	2.000000e-01	0.000000e+00	0.0	2.100000e-01	0.000000e+00	0.0	2.200000e-01	0.000000e+00	0.0	2.300000e-01	0.000000e+00	0.0	2.400000e-01	0.000000e+00	0.0	2.500000e-01	0.000000e+00	0.0	2.600000e-01	0.000000e+00	0.0	2.700000e-01	0.000000e+00	0.0	2.800000e-01	0.000000e+00	0.0	2.900000e-01	0.000000e+00	0.0	3.000000e-01	0.000000e+00	0.0	3.100000e-01	0.000000e+00	0.0	3.200000e-01	0.000000e+00	0.0	3.300000e-01	0.000000e+00	0.0	3.400000e-01	0.000000e+00	0.0	3.500000e-01	0.000000e+00	0.0	3.600000e-01	0.000000e+00	0.0	3.700000e-01	0.000000e+00	0.0	3.800000e-01	0.000000e+00	0.0	3.900000e-01	0.000000e+00	0.0	4.000000e-01	0.000000e+00	0.0	4.100000e-01	0.000000e+00	0.0	4.200000e-01	0.000000e+00	0.0	4.300000e-01	0.000000e+00	0.0	4.400000e-01	0.000000e+00	0.0	4.500000e-01	0.000000e+00	0.0	4.600000e-01	0.000000e+00	0.0	4.700000e-01	0.000000e+00	0.0	4.800000e-01	0.000000e+00	0.0	4.900000e-01	0.000000e+00	0.0	5.000000e-01	0.000000e+00	0.0	5.100000e-01	0.000000e+00	0.0	5.200000e-01	0.000000e+00	0.0	5.300000e-01	0.000000e+00	0.0	5.400000e-01	0.000000e+00	0.0	5.500000e-01	0.000000e+00	0.0	5.600000e-01	0.000000e+00	0.0	5.700000e-01	0.000000e+00	0.0	5.800000e-01	0.000000e+00	0.0	5.900000e-01	0.000000e+00	0.0	6.000000e-01	0.000000e+00	0.0	6.100000e-01	0.000000e+00	0.0	6.200000e-01	0.000000e+00	0.0	6.300000e-01	0.000000e+00	0.0	6.400000e-01	0.000000e+00	0.0	6.500000e-01	0.000000e+00	0.0	6.600000e-01	0.000000e+00	0.0	6.700000e-01	0.000000e+00	0.0	6.800000e-01	0.000000e+00	0.0	6.900000e-01	0.000000e+00	0.0	7.000000e-01	0.000000e+00	0.0	7.100000e-01	0.000000e+00	0.0	7.200000e-01	0.000000e+00	0.0	7.300000e-01	0.000000e+00	0.0	7.400000e-01	0.000000e+00	0.0	7.500000e-01	0.000000e+00	0.0	7.600000e-01	0.000000e+00	0.0	7.700000e-01	0.000000e+00	0.0	7.800000e-01	0.000000e+00	0.0	7.900000e-01	0.000000e+00	0.0	8.000000e-01	0.000000e+00	0.0	8.100000e-01	0.000000e+00	0.0	8.200000e-01	0.000000e+00	0.0	8.300000e-01	0.000000e+00	0.0	8.400000e-01	0.000000e+00	0.0	8.500000e-01	0.000000e+00	0.0	8.600000e-01	0.000000e+00	0.0	8.700000e-01	0.000000e+00	0.0	8.800000e-01	0.000000e+00	0.0	8.900000e-01	0.000000e+00	0.0	9.000000e-01	0.000000e+00	0.0	9.100000e-01	0.000000e+00	0.0	9.200000e-01	0.000000e+00	0.0	9.300000e-01	0.000000e+00	0.0	9.400000e-01	0.000000e+00	0.0	9.500000e-01	0.000000e+00	0.0	9.600000e-01	0.000000e+00	0.0	9.700000e-01	0.000000e+00	0.0	9.800000e-01	0.000000e+00	0.0	9.900000e-01	0.000000e+00	0.0	1.000000e+00	0.000000e+00	0.0	0.000000e+00	1.000000e-02	0.0	1.000000e-02	1.000000e-02	0.0	2.000000e-02	1.000000e-02	0.0	3.000000e-02	1.000000e-02	0.0	4.000000e-02	1.000000e-02	0.0	5.000000e-02	1.000000e-02	0.0	6.000000e-02	1.000000e-02	0.0	7.000000e-02	1.000000e-02	0.0	8.000000e-02	1.000000e-02	0.0	9.000000e-02	1.000000e-02	0.0	1.000000e-01	1.000000e-02	0.0	1.100000e-01	1.000000e-02	0.0	1.200000e-01	1.000000e-02	0.0	1.300000e-01	1.000000e-02	0.0	1.400000e-01	1.000000e-02	0.0	1.500000e-01	1.000000e-02	0.0	1.600000e-01	1.000000e-02	0.0	1.700000e-01	1.000000e-02	0.0	1.800000e-01	1.000000e-02	0.0	1.900000e-01	1.000000e-02	0.0	2.000000e-01	1.000000e-02	0.0	2.100000e-01	1.000000e-02	0.0	2.200000e-01	1.000000e-02	0.0	2.300000e-01	1.000000e-02	0.0	2.400000e-01	1.000000e-02	0.0	2.500000e-01	1.000000e-02	0.0	2.600000e-01	1.000000e-02	0.0	2.700000e-01	1.000000e-02	0.0	2.800000e-01	1.000000e-02	0.0	2.900000e-01	1.000000e-02	0.0	3.000000e-01	1.000000e-02	0.0	3.100000e-01	1.000000e-02	0.0	3.200000e-01	1.000000e-02	0.0	3.300000e-01	1.000000e-02	0.0	3.400000e-01	1.000000e-02	0.0	3.500000e-01	1.000000e-02	0.0	3.600000e-01	1.000000e-02	0.0	3.700000e-01	1.000000e-02	0.0	3.800000e-01	1.000000e-02	0.0	3.900000e-01	1.000000e-02	0.0	4.000000e-01	1.000000e-02	0.0	4.100000e-01	1.000000e-02	0.0	4.200000e-01	1.000000e-02	0.0	4.300000e-01	1.000000e-02	0.0	4.400000e-01	1.000000e-02	0.0	4.500000e-01	1.000000e-02	0.0	4.600000e-01	1.000000e-02	0.0	4.700000e-01	1.000000e-02	0.0	4.800000e-01	1.000000e-02	0.0	4.900000e-01	1.000000e-02	0.0	5.000000e-01	1.000000e-02	0.0	5.100000e-01	1.000000e-02	0.0	5.200000e-01	1.000000e-02	0.0	5.300000e-01	1.000000e-02	0.0	5.400000e-01	1.000000e-02	0.0	5.500000e-01	1.000000e-02	0.0	5.600000e-01	1.000000e-02	0.0	5.700000e-01	1.000000e-02	0.0	5.800000e-01	1.000000e-02	0.0	5.900000e-01	1.000000e-02	0.0	6.000000e-01	1.000000e-02	0.0	6.100000e-01	1.000000e-02	0.0	6.200000e-01	1.000000e-02	0.0	6.300000e-01	1.000000e-02	0.0	6.400000e-01	1.000000e-02	0.0	6.500000e-01	1.000000e-02	0.0	6.600000e-01	1.000000e-02	0.0	6.700000e-01	1.000000e-02	0.0	6.800000e-01	1.000000e-02	0.0	6.900000e-01	1.000000e-02	0.0	7.000000e-01	1.000000e-02	0.0	7.100000e-01	1.000000e-02	0.0	7.200000e-01	1.000000e-02	0.0	7.300000e-01	1.000000e-02	0.0	7.400000e-01	1.000000e-02	0.0	7.500000e-01	1.000000e-02	0.0	7.600000e-01	1.000000e-02	0.0	7.700000e-01	1.000000e-02	0.0	7.800000e-01	1.000000e-02	0.0	7.900000e-01	1.000000e-02	0.0	8.000000e-01	1.000000e-02	0.0	8.100000e-01	1.000000e-02	0.0	8.200000e-01	1.000000e-02	0.0	8.300000e-01	1.000000e-02	0.0	8.400000e-01	1.000000e-02	0.0	8.500000e-01	1.000000e-02	0.0	8.600000e-01	1.000000e-02	0.0	8.700000e-01	1.000000e-02	0.0	8.800000e-01	1.000000e-02	0.0	8.900000e-01	1.000000e-02	0.0	9.000000e-01	1.000000e-02	0.0	9.100000e-01	1.000000e-02	0.0	9.200000e-01	1.000000e-02	0.0	9.300000e-01	1.000000e-02	0.0	9.400000e-01	1.000000e-02	0.0	9.500000e-01	1.000000e-02	0.0	9.600000e-01	1.000000e-02	0.0	9.700000e-01	1.000000e-02	0.0	9.800000e-01	1.000000e-02	0.0	9.900000e-01	1.000000e-02	0.0	1.000000e+00	1.000000e-02	0.0	0.000000e+00	2.000000e-02	0.0	1.000000e-02	2.000000e-02	0.0	2.000000e-02	2.000000e-02	0.0	3.000000e-02	2.000000e-02	0.0	4.000000e-02	2.000000e-02	0.0	5.000000e-02	2.000000e-02	0.0	6.000000e-02	2.000000e-02	0.0	7.000000e-02	2.000000e-02	0.0	8.000000e-02	2.000000e-02	0.0	9.000000e-02	2.000000e-02	0.0	1.000000e-01	2.000000e-02	0.0	1.100000e-01	2.000000e-02	0.0	1.200000e-01	2.000000e-02	0.0	1.300000e-01	2.000000e-02	0.0	1.400000e-01	2.000000e-02	0.0	1.500000e-01	2.000000e-02	0.0	1.600000e-01	2.000000e-02	0.0	1.700000e-01	2.000000e-02	0.0	1.800000e-01	2.000000e-02	0.0	1.900000e-01	2.000000e-02	0.0	2.000000e-01	2.000000e-02	0.0	2.100000e-01	2.000000e-02	0.0	2.200000e-01	2.000000e-02	0.0	2.300000e-01	2.000000e-02	0.0	2.400000e-01	2.000000e-02	0.0	2.500000e-01	2.000000e-02	0.0	2.600000e-01	2.000000e-02	0.0	2.700000e-01	2.000000e-02	0.0	2.800000e-01	2.000000e-02	0.0	2.900000e-01	2.000000e-02	0.0	3.000000e-01	2.000000e-02	0.0	3.100000e-01	2.000000e-02	0.0	3.200000e-01	2.000000e-02	0.0	3.300000e-01	2.000000e-02	0.0	3.400000e-01	2.000000e-02	0.0	3.500000e-01	2.000000e-02	0.0	3.600000e-01	2.000000e-02	0.0	3.700000e-01	2.000000e-02	0.0	3.800000e-01	2.000000e-02	0.0	3.900000e-01	2.000000e-02	0.0	4.000000e-01	2.000000e-02	0.0	4.100000e-01	2.000000e-02	0.0	4.200000e-01	2.000000e-02	0.0	4.300000e-01	2.000000e-02	0.0	4.400000e-01	2.000000e-02	0.0	4.500000e-01	2.000000e-02	0.0	4.600000e-01	2.000000e-02	0.0	4.700000e-01	2.000000e-02	0.0	4.800000e-01	2.000000e-02	0.0	4.900000e-01	2.000000e-02	0.0	5.000000e-01	2.000000e-02	0.0	5.100000e-01	2.000000e-02	0.0	5.200000e-01	2.000000e-02	0.0	5.300000e-01	2.000000e-02	0.0	5.400000e-01	2.000000e-02	0.0	5.500000e-01	2.000000e-02	0.0	5.600000e-01	2.000000e-02	0.0	5.700000e-01	2.000000e-02	0.0	5.800000e-01	2.000000e-02	0.0	5.900000e-01	2.000000e-02	0.0	6.000000e-01	2.000000e-02	0.0	6.100000e-01	2.000000e-02	0.0	6.200000e-01	2.000000e-02	0.0	6.300000e-01	2.000000e-02	0.0	6.400000e-01	2.000000e-02	0.0	6.500000e-01	2.000000e-02	0.0	6.600000e-01	2.000000e-02	0.0	6.700000e-01	2.000000e-02	0.0	6.800000e-01	2.000000e-02	0.0	6.900000e-01	2.000000e-02	0.0	7.000000e-01	2.000000e-02	0.0	7.100000e-01	2.000000e-02	0.0	7.200000e-01	2.000000e-02	0.0	7.300000e-01	2.000000e-02	0.0	7.400000e-01	2.000000e-02	0.0	7.500000e-01	2.000000e-02	0.0	7.600000e-01	2.000000e-02	0.0	7.700000e-01	2.000000e-02	0.0	7.800000e-01	2.000000e-02	0.0	7.900000e-01	2.000000e-02	0.0	8.000000e-01	2.000000e-02	0.0	8.100000e-01	2.000000e-02	0.0	8.200000e-01	2.000000e-02	0.0	8.300000e-01	2.000000e-02	0.0	8.400000e-01	2.000000e-02	0.0	8.500000e-01	2.000000e-02	0.0	8.600000e-01	2.000000e-02	0.0	8.700000e-01	2.000000e-02	0.0	8.800000e-01	2.000000e-02	0.0	8.900000e-01	2.000000e-02	0.0	9.000000e-01	2.000000e-02	0.0	9.100000e-01	2.000000e-02	0.0	9.200000e-01	2.000000e-02	0.0	9.300000e-01	2.000000e-02	0.0	9.400000e-01	2.000000e-02	0.0	9.500000e-01	2.000000e-02	0.0	9.600000e-01	2.000000e-02	0.0	9.700000e-01	2.000000e-02	0.0	9.800000e-01	2.000000e-02	0.0	9.900000e-01	2.000000e-02	0.0	1.000000e+00	2.000000e-02	0.0	0.000000e+00	3.000000e-02	0.0	1.000000e-02	3.000000e-02	0.0	2.000000e-02	3.000000e-02	0.0	3.000000e-02	3.000000e-02	0.0	4.000000e-02	3.000000e-02	0.0	5.000000e-02	3.000000e-02	0.0	6.000000e-02	3.000000e-02	0.0	7.000000e-02	3.000000e-02	0.0	8.000000e-02	3.000000e-02	0.0	9.000000e-02	3.000000e-02	0.0	1.000000e-01	3.000000e-02	0.0	1.100000e-01	3.000000e-02	0.0	1.200000e-01	3.000000e-02	0.0	1.300000e-01	3.000000e-02	0.0	1.400000e-01	3.000000e-02	0.0	1.500000e-01	3.000000e-02	0.0	1.600000e-01	3.000000e-02	0.0	1.700000e-01	3.000000e-02	0.0	1.800000e-01	3.000000e-02	0.0	1.900000e-01	3.000000e-02	0.0	2.000000e-01	3.000000e-02	0.0	2.100000e-01	3.000000e-02	0.0	2.200000e-01	3.000000e-02	0.0	2.300000e-01	3.000000e-02	0.0	2.400000e-01	3.000000e-02	0.0	2.500000e-01	3.000000e-02	0.0	2.600000e-01	3.000000
[...]
POINT_DATA 10201

SCALARS Height double 1
LOOKUP_TABLE default
9.845593e-01	9.841822e-01	9.836453e-01	9.821749e-01	9.798477e-01	9.769186e-01	9.740204e-01	9.717002e-01	9.703402e-01	9.700694e-01	9.708540e-01	9.733756e-01	9.776838e-01	9.838481e-01	9.922227e-01	1.002758e+00	1.014460e+00	1.025618e+00	1.034740e+00	1.041128e+00	1.044303e+00	1.044340e+00	1.038785e+00	1.025212e+00	1.010112e+00	1.000700e+00	9.968820e-01	9.956862e-01	9.953524e-01	9.952536e-01	9.951998e-01	9.951250e-01	9.950011e-01	9.948245e-01	9.946024e-01	9.943410e-01	9.940409e-01	9.936995e-01	9.933066e-01	9.928540e-01	9.923249e-01	9.916452e-01	9.906353e-01	9.889860e-01	9.864311e-01	9.830892e-01	9.795987e-01	9.767629e-01	9.750845e-01	9.745519e-01	9.750395e-01	9.771570e-01	9.810578e-01	9.868188e-01	9.949134e-01	1.005451e+00	1.017518e+00	1.029209e+00	1.038727e+00	1.045320e+00	1.048726e+00	1.049020e+00	1.044035e+00	1.030743e+00	1.015079e+00	1.005212e+00	1.001403e+00	1.000331e+00	1.000076e+00	1.000019e+00	1.000005e+00	1.000001e+00	1.000000e+00	1.000000e+00	1.000000e+00	1.000000e+00	1.000000e+00	1.000000e+00	1.000000e+00	1.000000e+00	1.000000e+00	1.000000e+00	1.000000e+00	1.000000e+00	1.000000e+00	1.000000e+00	1.000000e+00	1.000000e+00	1.000000e+00	1.000000e+00	1.000000e+00	1.000000e+00	1.000000e+00	1.000000e+00	1.000000e+00	1.000000e+00	1.000000e+00	1.000000e+00	1.000000e+00	1.000000e+00	1.000000e+00	9.841822e-01	9.837207e-01	9.831124e-01	9.815545e-01	9.792034e-01	9.763421e-01	9.735181e-01	9.712960e-01	9.702897e-01	9.702987e-01	9.710853e-01	9.737051e-01	9.782306e-01	9.845710e-01	9.929808e-01	1.003396e+00	1.014976e+00	1.026208e+00	1.035651e+00	1.041903e+00	1.044046e+00	1.043709e+00	1.038331e+00	1.025142e+00	1.009506e+00	9.999412e-01	9.964637e-01	9.955059e-01	9.952612e-01	9.951841e-01	9.951332e-01	9.950569e-01	9.949306e-01	9.947491e-01	9.945196e-01	9.942529e-01	9.939446e-01	9.935946e-01	9.931930e-01	9.927193e-01	9.921393e-01	9.913604e-01	9.902040e-01	9.884112e-01	9.857860e-01	9.824672e-01	9.790775e-01	9.764708e-01	9.751466e-01	9.748382e-01	9.753316e-01	9.775099e-01	9.816075e-01	9.875764e-01	9.957500e-01	1.006200e+00	1.018122e+00	1.029843e+00	1.039697e+00	1.046287e+00	1.048622e+00	1.048465e+00	1.043624e+00	1.030782e+00	1.014675e+00	1.004576e+00	1.001029e+00	1.000200e+00	1.000041e+00	1.000010e+00	1.000003e+00	1.000001e+00	1.000000e+00	1.000000e+00	1.000000e+00	1.000000e+00	1.000000e+00	1.000000e+00	1.000000e+00	1.000000e+00	1.000000e+00	1.000000e+00	1.000000e+00	1.000000e+00	1.000000e+00	1.000000e+00	1.000000e+00	1.000000e+00	1.000000e+00	1.000000e+00	1.000000e+00	1.000000e+00	1.000000e+00	1.000000e+00	1.000000e+00	1.000000e+00	1.000000e+00	1.000000e+00	1.000000e+00	1.000000e+00	1.000000e+00	9.836453e-01	9.831124e-01	9.823938e-01	9.808377e-01	9.787914e-01	9.764601e-01	9.741892e-01	9.725345e-01	9.716862e-01	9.716353e-01	9.723282e-01	9.747285e-01	9.793282e-01	9.857923e-01	9.938406e-01	1.003449e+00	1.014263e+00	1.025324e+00	1.034658e+00	1.040017e+00	1.041585e+00	1.041023e+00	1.036157e+00	1.024796e+00	1.011503e+00	1.001941e+00	9.973278e-01	9.957354e-01	9.952999e-01	9.951654e-01	9.950933e-01	9.950109e-01	9.948884e-01	9.947139e-01	9.944877e-01	9.942209e-01	9.939125e-01	9.935576e-01	9.931434e-01	9.926269e-01	9.919292e-01	9.909397e-01	9.895069e-01	9.875437e-01	9.851062e-01	9.824323e-01	9.799153e-01	9.779084e-01	9.765931e-01	9.762180e-01	9.765513e-01	9.784730e-01	9.826867e-01	9.888813e-01	9.967956e-01	1.006449e+00	1.017454e+00	1.028870e+00	1.038714e+00	1.044463e+00	1.046215e+00	1.045786e+00	1.041299e+00	1.030243e+00	1.016809e+00	1.006657e+00	1.001812e+00	1.000360e+00	1.000063e+00	1.000013e+00	1.000003e+00	1.000001e+00	1.000000e+00	1.000000e+00	1.000000e+00	1.000000e+00	1.000000e+00	1.000000e+00	1.000000e+00	1.000000e+00	1.000000e+00	1.000000e+00	1.000000e+00	1.000000e+00	1.000000e+00	1.000000e+00	1.000000e+00	1.000000e+00	1.000000e+00	1.000000e+00	1.000000e+00	1.000000e+00	1.000000e+00	1.000000e+00	1.000000e+00	1.000000e+00	1.000000e+00	1.000000e+00	1.000000e+00	1.000000e+00	1.000000e+00	9.821749e-01	9.815545e-01	9.808377e-01	9.793573e-01	9.776880e-01	9.759876e-01	9.745634e-01	9.735978e-01	9.731203e-01	9.733070e-01	9.742581e-01	9.769175e-01	9.815584e-01	9.879799e-01	9.958154e-01	1.004761e+00	1.014746e+00	1.025123e+00	1.033529e+00	1.037950e+00	1.038659e+00	1.037524e+00	1.032237e+00	1.022784e+00	1.012737e+00	1.004221e+00	9.986480e-01	9.961410e-01	9.953308e-01	9.950829e-01	9.949692e-01	9.948683e-01	9.947378e-01	9.945623e-01	9.943331e-01	9.940521e-01	9.937224e-01	9.933332e-01	9.928491e-01	9.922093e-01	9.912852e-01	9.899474e-01	9.881464e-01	9.860235e-01	9.839212e-01	9.821266e-01	9.805717e-01	9.790693e-01	9.781618e-01	9.780478e-01	9.785361e-01	9.806269e-01	9.849182e-01	9.912106e-01	9.990326e-01	1.008031e+00	1.018133e+00	1.028783e+00	1.037692e+00	1.042478e+00	1.043405e+00	1.042419e+00	1.037393e+00	1.028122e+00	1.018003e+00	1.009216e+00	1.003304e+00	1.000774e+00	1.000133e+00	1.000022e+00	1.000005e+00	1.000001e+00	1.000000e+00	1.000000e+00	1.000000e+00	1.000000e+00	1.000000e+00	1.000000e+00	1.000000e+00	1.000000e+00	1.000000e+00	1.000000e+00	1.000000e+00	1.000000e+00	1.000000e+00	1.000000e+00	1.000000e+00	1.000000e+00	1.000000e+00	1.000000e+00	1.000000e+00	1.000000e+00	1.000000e+00	1.000000e+00	1.000000e+00	1.000000e+00	1.000000e+00	1.000000e+00	1.000000e+00	1.000000e+00	1.000000e+00	9.798477e-01	9.792034e-01	9.787914e-01	9.776880e-01	9.766204e-01	9.757646e-01	9.753009e-01	9.749502e-01	9.750480e-01	9.754733e-01	9.768010e-01	9.798460e-01	9.846528e-01	9.909000e-01	9.982834e-01	1.006471e+00	1.015292e+00	1.024196e+00	1.031439e+00	1.034578e+00	1.034786e+00	1.033094e+00	1.027781e+00	1.020642e+00	1.013721e+00	1.006828e+00	1.000628e+00	9.968841e-01	9.954337e-01	9.949823e-01	9.947999e-01	9.946698e-01	9.945230e-01	9.943369e-01	9.940958e-01	9.937875e-01	9.934045e-01	9.929314e-01	9.922987e-01	9.914088e-01	9.901440e-01	9.884210e-01	9.864275e-01	9.845821e-01	9.832463e-01	9.823024e-01	9.813775e-01	9.805439e-01	9.801970e-01	9.803016e-01	9.810995e-01	9.836284e-01	9.882206e-01	9.944396e-01	1.001839e+00	1.010083e+00	1.019003e+00	1.028080e+00	1.035611e+00	1.039309e+00	1.039647e+00	1.038169e+00	1.032967e+00	1.025762e+00	1.018926e+00	1.012070e+00	1.005568e+00	1.001605e+00	1.000302e+00	1.000047e+00	1.000008e+00	1.000002e+00	1.000001e+00	1.000000e+00	1.000000e+00	1.000000e+00	1.000000e+00	1.000000e+00	1.000000e+00	1.000000e+00	1.000000e+00	1.000000e+00	1.000000e+00	1.000000e+00	1.000000e+00	1.000000e+00	1.000000e+00	1.000000e+00	1.000000e+00	1.000000e+00	1.000000e+00	1.000000e+00	1.000000e+00	1.000000e+00	1.000000e+00	1.000000e+00	1.000000e+00	1.000000e+00	1.000000e+00	1.000000e+00	1.000000e+00	9.769186e-01	9.763421e-01	9.764601e-01	9.759876e-01	9.757646e-01	9.758912e-01	9.762194e-01	9.766416e-01	9.772381e-01	9.781992e-01	9.801421e-01	9.835624e-01	9.884127e-01	9.943539e-01	1.001057e+00	1.008282e+00	1.015693e+00	1.022727e+00	1.028181e+00	1.030136e+00	1.029973e+00	1.027892e+00	1.023317e+00	1.018616e+00	1.014418e+00	1.009253e+00	1.002945e+00	9.979453e-01	9.956341e-01	9.948650e-01	9.945786e-01	9.944014e-01	9.942261e-01	9.940067e-01	9.937214e-01	9.933500e-01	9.928589e-01	9.922030e-01	9.913143e-01	9.900679e-01	9.884196e-01	9.865724e-01	9.849173e-01	9.838172e-01	9.831916e-01	9.826946e-01	9.823507e-01	9.823576e-01	9.825484e-01	9.830336e-01	9.844567e-01	9.875200e-01	9.923061e-01	9.983374e-01	1.005133e+00	1.012399e+00	1.019776e+00	1.026755e+00	1.032586e+00	1.035038e+00	1.035002e+00	1.033113e+00	1.028521e+00	1.023697e+00	1.019616e+00	1.014670e+00	1.008251e+00	1.002914e+00	1.000632e+00	1.000102e+00	1.000016e+00	1.000003e+00	1.000001e+00	1.000000e+00	1.000000e+00	1.000000e+00	1.000000e+00	1.000000e+00	1.000000e+00	1.000000e+00	1.000000e+00	1.000000e+00	1.000000e+00	1.000000e+00	1.000000e+00	1.000000e+00	1.000000e+00	1.000000e+00	1.000000e+00	1.000000e+00	1.000000e+00	1.000000e+00	1.000000e+00	1.000000e+00	1.000000e+00	1.000000e+00	1.000000e+00	1.000000e+00	1.000000e+00	1.000000e+00	1.000000e+00	9.740204e-01	9.735181e-01	9.741892e-01	9.745634e-01	9.753009e-01	9.762194e-01	9.773186e-01	9.785241e-01	9.798059e-01	9.815247e-01	9.841471e-01	9.879017e-01	9.926543e-01	9.980745e-01	1.003855e+00	1.009764e+00	1.015479e+00	1.020568e+00	1.023603e+00	1.024561e+00	1.024254e+00	1.022505e+00	1.019544e+00	1.017124e+00	1.014881e+00	1.011214e+00	1.005242e+00	9.992587e-01	9.959342e-01	9.947205e-01	9.942761e-01	9.940242e-01	9.937887e-01	9.935010e-01	9.931172e-01	9.926061e-01	9.919221e-01	9.909891e-01	9.897393e-01	9.881842e-01	9.865254e-01	9.851135e-01	9.842151e-01	9.837433e-01	9.834393e-01	9.834123e-01	9.837260e-01	9.843995e-01	9.852474e-01	9.864847e-01	9.886852e-01	9.922517e-01	9.970823e-01	1.002720e+00	1.008645e+00	1.014441e+00	1.019895e+00	1.024893e+00	1.028364e+00	1.029645e+00	1.029433e+00	1.027794e+00	1.024749e+00	1.022271e+00	1.020139e+00	1.016788e+00	1.010933e+00	1.004629e+00	1.001185e+00	1.000209e+00	1.000032e+00	1.000006e+00	1.000001e+00	1.000000e+00	1.000000e+00	1.000000e+00	1.000000e+00	1.000000e+00	1.000000e+00	1.000000e+00	1.000000e+00	1.000000e+00	1.000000e+00	1.000000e+00	1.000000e+00	1.000000e+00	1.000000e+00	1.000000e+00	1.000000e+00	1.000000e+00	1.000000e+00	1.000000e+00	1.000000e+00	1.000000e+00	1.000000e+00	1.000000e+00	1.000000e+00	1.000000e+00	1.000000e+00	1.000000e+00	1.000000e+00	9.717002e-01	9.712960e-01	9.725345e-01	9.735978e-01	9.749502e-01	9.766416e-01	9.785241e-01	9.805068e-01	9.826901e-01	9.853241e-01	9.886043e-01	9.925701e-01	9.970495e-01	1.001705e+00	1.006291e+00	1.010602e+00	1.014465e+00	1.017089e+00	1.017819e+00	1.017946e+00	1.018010e+00	1.017564e+00	1.016762e+00	1.016097e+00	1.015106e+00	1.012597e+00	1.007202e+00	1.000645e+00	9.963026e-01	9.945131e-01	9.938361e-01	9.934594e-01	9.931118e-01	9.926920e-01	9.921404e-01	9.914013e-01	9.904278e-01	9.891978e-01	9.877731e-01	9.863682e-01	9.852525e-01	9.845652e-01	9.841979e-01	9.839756e-01	9.840384e-01	9.845071e-01	9.855312e-01	9.869090e-01	9.885481e-01	9.907056e-01	9.937096e-01	9.976808e-01	1.002357e+00	1.007234e+00	1.011814e+00	1.015788e+00	1.019143e+00	1.021939e+00	1.023009e+00	1.023217e+00	1.023313e+00	1.022870e+00	1.022077e+00	1.021438e+00	1.020565e+00	1.018362e+00	1.013301e+00	1.006573e+00	1.001994e+00	1.000397e+00	1.000063e+00	1.000010e+00	1.000002e+00	1.000001e+00	1.000000e+00	1.000000e+00	1.000000e+00	1.000000e+00	1.000000e+00	1.000000e+00	1.000000e+00	1.000000e+00	1.000000e+00	1.000000e+00	1.000000e+00	1.000000e+00	1.000000e+00	1.000000e+00	1.000000e+00	1.000000e+00	1.000000e+00	1.000000e+00	1.000000e+00	1.000000e+00	1.000000e+00	1.000000e+00	1.000000e+00	1.000000e+00	1.000000e+00	1.000000e+00	1.000000e+00	9.703402e-01	9.702897e-01	9.716862e-01	9.731203e-01	9.750480e-01	9.772381e-01	9.798059e-01	9.826901e-01	9.858850e-01	9.893790e-01	9.931551e-01	9.971527e-01	1.001152e+00	1.004771e+00	1.007798e+00	1.010399e+00	1.012036e+00	1.011837e+00	1.011189e+00	1.010879e+00	1.011649e+00	1.013682e+00	1.014944e+00	1.015110e+00	1.014880e+00	1.013128e+00	1.008524e+00	1.001844e+00	9.966400e-01	9.941599e-01	9.931533e-01	9.925823e-01	9.920528e-01	9.914201e-01	9.906208e-01	9.896330e-01	9.884808e-01	9.872706e-01	9.861904e-01	9.853890e-01	9.849091e-01	9.846094e-01	9.844444e-01	9.845667e-01	9.850973e-01	9.862512e-01	9.879590e-01	9.900873e-01	9.926574e-01	9.957625e-01	9.994431e-01	1.003572e+00	1.007722e+00	1.011299e+00	1.014006e+00	1.015961e+00	1.017501e+00	1.017416e+00	1.016839e+00	1.016411e+00	1.017007e+00	1.019130e+00	1.020771e+00	1.020970e+00	1.020859e+00	1.019416e+00	1.015200e+00	1.008545e+00	1.003047e+00	1.000694e+00	1.000118e+00	1.000019e+00	1.000003e+00	1.000001e+00	1.000000e+00	1.000000e+00	1.000000e+00	1.000000e+00	1.000000e+00	1.000000e+00	1.000000e+00	1.000000e+00	1.000000e+00	1.000000e+00	1.000000e+00	1.000000e+00	1.000000e+00	1.000000e+00	1.000000e+00	1.000000e+00	1.000000e+00	1.000000e+00	1.000000e+00	1.000000e+00	1.000000e+00	1.000000e+00	1.000000e+00	1.000000e+00	1.000000e+00	1.000000e+00	1.000000e+00	9.700694e-01	9.702987e-01	9.716353e-01	9.733070e-01	9.754733e-01	9.781992e-01	9.815247e-01	9.853241e-01	9.893790e-01	9.934824e-01	9.975098e-01	1.001319e+00	1.004440e+00	1.006540e+00	1.007975e+00	1.008586e+00	1.007514e+00	1.005207e+00	1.003939e+00	1.003882e+00	1.006195e+00	1.010662e+00	1.013545e+00	1.014230e+00	1.014261e+00	1.013055e+00	1.009156e+00	1.002719e+00	9.967653e-01	9.935123e-01	9.920736e-01	9.912364e-01	9.904801e-01	9.896354e-01	9.886856e-01	9.877007e-01	9.867987e-01	9.860699e-01	9.855696e-01	9.852382e-01	9.849788e-01	9.848862e-01	9.850732e-01	9.856836e-01	9.869185e-01	9.887690e-01	9.911743e-01	9.941458e-01	9.976798e-01	1.001640e+00	1.005734e+00	1.009500e+00	1.012409e+00	1.014086e+00	1.014712e+00	1.015018e+00	1.014131e+00	1.011751e+00	1.010085e+00	1.009759e+00	1.011867e+00	1.016708e+00	1.020095e+00	1.020923e+00	1.020995e+00	1.020038e+00	1.016603e+00	1.010378e+00	1.004280e+00	1.001120e+00	1.000208e+00	1.000033e+00	1.000006e+00	1.000001e+00	1.000000e+00	1.000000e+00	1.000000e+00	1.000000e+00	1.000000e+00	1.000000e+00	1.000000e+00	1.000000e+00	1.000000e+00	1.000000e+00	1.000000e+00	1.000000e+00	1.000000e+00	1.000000e+00	1.000000e+00	1.000000e+00	1.000000e+00	1.000000e+00	1.000000e+00	1.000000e+00	1.000000e+00	1.000000e+00	1.000000e+00	1.000000e+00	1.000000e+00	1.000000e+00	1.000000e+00	9.708540e-01	9.710853e-01	9.723282e-01	9.742581e-01	9.768010e-01	9.801421e-01	9.841471e-01	9.886043e-01	9.931551e-01	9.975098e-01	1.001471e+00	1.004518e+00	1.006055e+00	1.006742e+00	1.006720e+00	1.004419e+00	1.000537e+00	9.976955e-01	9.968385e-01	9.975899e-01	1.001958e+00	1.008257e+00	1.012063e+00	1.013065e+00	1.013191e+00	1.012332e+00	1.009045e+00	1.002919e+00	9.964517e-01	9.924350e-01	9.905359e-01	9.894672e-01	9.886066e-01	9.877961e-01	9.870733e-01	9.864941e-01	9.860848e-01	9.857984e-01	9.855547e-01	9.853473e-01	9.853480e-01	9.856167e-01	9.863531e-01	9.876949e-01	9.896475e-01	9.921873e-01	9.953581e-01	9.992175e-01	1.003635e+00	1.008131e+00	1.011945e+00	1.014405e+00	1.015279e+00	1.015155e+00	1.014519e+00	1.012662e+00	1.008843e+00	1.005109e+00	1.003694e+00	1.004126e+00	1.008441e+00	1.015353e+00	1.019663e+00	1.020871e+00	1.021018e+00	1.020369e+00	1.017592e+00	1.011988e+00	1.005603e+00	1.001672e+00	1.000340e+00	1.000056e+00	1.000009e+00	1.000002e+00	1.000000e+00	1.000000e+00	1.000000e+00	1.000000e+00	1.000000e+00	1.000000e+00	1.000000e+00	1.000000e+00	1.000000e+00	1.000000e+00	1.000000e+00	1.000000e+00	1.000000e+00	1.000000e+00	1.000000e+00	1.000000e+00	1.000000e+00	1.000000e+00	1.000000e+00	1.000000e+00	1.000000e+00	1.000000e+00	1.000000e+00	1.000000e+00	1.000000e+00	1.000000e+00	1.000000e+00	9.733756e-01	9.737051e-01	9.747285e-01	9.769175e-01	9.798460e-01	9.835624e-01	9.879017e-01	9.925701e-01	9.971527e-01	1.001319e+00	1.004518e+00	1.005898e+00	1.006355e+00	1.005639e+00	1.002355e+00	9.970446e-01	9.925785e-01	9.906304e-01	9.904250e-01	9.926031e-01	9.987249e-01	1.005925e+00	1.010240e+00	1.011416e+00	1.011554e+00	1.010855e+00	1.008018e+00	1.002357e+00	9.957339e-01	9.911594e-01	9.889749e-01	9.879181e-01	9.872529e-01	9.867733e-01	9.864337e-01	9.862040e-01	9.860204e-01	9.858409e-01	9.857482e-01	9.858603e-01	9.862661e-01	9.871726e-01	9.886543e-01	9.907237e-01	9.933692e-01	9.966403e-01	1.000636e+00	1.005322e+00	1.010247e+00	1.014374e+00	1.016719e+00	1.017261e+00	1.016721e+00	1.015215e+00	1.012646e+00	1.007828e+00	1.002172e+00	9.990237e-01	9.983476e-01	1.000259e+00	1.006708e+00	1.014443e+00	1.019259e+00	1.020738e+00	1.020933e+00	1.020509e+00	1.018293e+00	1.013336e+00	1.006923e+00	1.002325e+00	1.000519e+00	1.000090e+00	1.000014e+00	1.000003e+00	1.000001e+00	1.000000e+00	1.000000e+00	1.000000e+00	1.000000e+00	1.000000e+00	1.000000e+00	1.000000e+00	1.000000e+00	1.000000e+00	1.000000e+00	1.000000e+00	1.000000e+00	1.000000e+00	1.000000e+00	1.000000e+00	1.000000e+00	1.000000e+00	1.000000e+00	1.000000e+00	1.000000e+00	1.000000e+00	1.000000e+00	1.000000e+00	1.000000e+00	1.000000e+00	1.000000e+00	9.776838e-01	9.782306e-01	9.793282e-01	9.815584e-01	9.846528e-01	9.884127e-01	9.926543e-01	9.970495e-01	1.001152e+00	1.004440e+00	1.006055e+00	1.006355e+00	1.005336e+00	1.001360e+00	9.947534e-01	9.887188e-01	9.855630e-01	9.847981e-01	9.854183e-01	9.891814e-01	9.961217e-01	1.003420e+00	1.008070e+00	1.009524e+00	1.009737e+00	1.009267e+00	1.006991e+00	1.001989e+00	9.954839e-01	9.905698e-01	9.882678e-01	9.873385e-01	9.868776e-01	9.865832e-01	9.863775e-01	9.862255e-01	9.861535e-01	9.862209e-01	9.864817e-01	9.871193e-01	9.882209e-01	9.898643e-01	9.920669e-01	9.948217e-01	9.981791e-01	1.002238e+00	1.007000e+00	1.012072e+00	1.016411e+00	1.018844e+00	1.019370e+00	1.018786e+00	1.016842e+00	1.013615e+00	1.007987e+00	1.000939e+00	9.959845e-01	9.943691e-01	9.946451e-01	9.985141e-01	1.005905e+00	1.013558e+00	1.018669e+00	1.020518e+00	1.020780e+00	1.020533e+00	1.018783e+00	1.014431e+00	1.008163e+00	1.003041e+00	1.000744e+00	1.000135e+00	1.000022e+00	1.000004e+00	1.000001e+00	1.000000e+00	1.000000e+00	1.000000e+00	1.000000e+00	1.000000e+00	1.000000e+00	1.000000e+00	1.000000e+00	1.000000e+00	1.000000e+00	1.000000e+00	1.000000e+00	1.000000e+00	1.000000e+00	1.000000e+00	1.000000e+00	1.000000e+00	1.000000e+00	1.000000e+00	1.000000e+00	1.000000e+00	1.000000e+00	1.000000e+00	1.000000e+00	1.000000e+00	1.000000e+00	9.838481e-01	9.845710e-01	9.857923e-01	9.879799e-01	9.909000e-01	9.943539e-01	9.980745e-01	1.001705e+00	1.004771e+00	1.006540e+00	1.006742e+00	1.005639e+00	1.001360e+00	9.940081e-01	9.865652e-01	9.821695e-01	9.807329e-01	9.806574e-01	9.823604e-01	9.871300e-01	9.940458e-01	1.001128e+00	1.006139e+00	1.008038e+00	1.008408e+00	1.008244e+00	1.006548e+00	1.002249e+00	9.959735e-01	9.908546e-01	9.883554e-01	9.873849e-01	9.869260e-01	9.866584e-01	9.865316e-01	9.865866e-01	9.868140e-01	9.873464e-01	9.882463e-01	9.895776e-01	9.914057e-01	9.937497e-01	9.966191e-01	1.000066e+00	1.004176e+00	1.008932e+00	1.013909e+00	1.018101e+00	1.020441e+00	1.021008e+00	1.020617e+00	1.018912e+00	1.015348e+00	1.008858e+00	1.000674e+00	9.944129e-01	9.918009e-01	9.913723e-01	9.929975e-01	9.980397e-01	1.005263e+00	1.012578e+00	1.017938e+00	1.020232e+00	1.020626e+00	1.020495e+00	1.019114e+00	1.015298e+00	1.009269e+00	1.003773e+00	1.001004e+00	1.000193e+00	1.000032e+00	1.000005e+00	1.000001e+00	1.000000e+00	1.000000e+00	1.000000e+00	1.000000e+00	1.000000e+00	1.000000e+00	1.000000e+00	1.000000e+00	1.000000e+00	1.000000e+00	1.000000e+00	1.000000e+00	1.000000e+00	1.000000e+00	1.000000e+00	1.000000e+00	1.000000e+00	1.000000e+00	1.000000e+00	1.000000e+00	1.000000e+00	1.000000e+00	1.000000e+00	1.000000e+00	1.000000e+00	1.000000e+00	9.922227e-01	9.929808e-01	9.938406e-01	9.958154e-01	9.982834e-01	1.001057e+00	1.003855e+00	1.006291e+00	1.007798e+00	1.007975e+00	1.006720e+00	1.002355e+00	9.947534e-01	9.865652e-01	9.808800e-01	9.786163e-01	9.782453e-01	9.787684e-01	9.812466e-01	9.861352e-01	9.926207e-01	9.995024e-01	1.004905e+00	1.007282e+00	1.007774e+00	1.007740e+00	1.006397e+00	1.002597e+00	9.966706e-01	9.913687e-01	9.886656e-01	9.876623e-01	9.872713e-01	9.871649e-01	9.873103e-01	9.877113e-01	9.885308e-01	9.897379e-01	9.913240e-01	9.933402e-01	9.958297e-01	9.988222e-01	1.002370e+00	1.006521e+00	1.011182e+00	1.015845e+00	1.019539e+00	1.021474e+00	1.021916e+00	1.021707e+00	1.020650e+00	1.017432e+00	1.010352e+00	1.000939e+00	9.936829e-01	9.904393e-01	9.896469e-01	9.900466e-01	9.926962e-01	9.978567e-01	1.004561e+00	1.011547e+00	1.017179e+00	1.019922e+00	1.020483e+00	1.020438e+00	1.019339e+00	1.015972e+00	1.010216e+00	1.004479e+00	1.001283e+00	1.000260e+00	1.000044e+00	1.000007e+00	1.000001e+00	1.000000e+00	1.000000e+00	1.000000e+00	1.000000e+00	1.000000e+00	1.000000e+00	1.000000e+00	1.000000e+00	1.000000e+00	1.000000e+00	1.000000e+00	1.000000e+00	1.000000e+00	1.000000e+00	1.000000e+00	1.000000e+00	1.000000e+00	1.000000e+00	1.000000e+00	1.000000e+00	1.000000e+00	1.000000e+00	1.000000e+00	1.000000e+00	1.000000e+00	1.000000e+00	1.002758e+00	1.003396e+00	1.003449e+00	1.004761e+00	1.006471e+00	1.008282e+00	1.009764e+00	1.010602e+00	1.010399e+00	1.008586e+00	1.004419e+00	9.970446e-01	9.887188e-01	9.821695e-01	9.786163e-01	9.774823e-01	9.774404e-01	9.782930e-01	9.809911