# vtk DataFile Version 3.0
vtk output
ASCII
DATASET STRUCTURED_GRID
DIMENSIONS 101 101 1
POINTS 10201 double
0.000000e+00	0.000000e+00	0.0	1.000000e-02	0.000000e+00	0.0	2.000000e-02	0.000000e+00	0.0	3.000000e-02	0.000000e+00	0.0	4.000000e-02	0.000000e+00	0.0	5.000000e-02	0.000000e+00	0.0	6.000000e-02	0.000000e+00	0.0	7.000000e-02	0.000000e+00	0.0	8.000000e-02	0.000000e+00	0.0	9.000000e-02	0.000000e+00	0.0	1.000000e-01	0.000000e+00	0.0	1.100000e-01	0.000000e+00	0.0	1.200000e-01	0.000000e+00	0.0	1.300000e-01	0.000000e+00	0.0	1.400000e-01	0.000000e+00	0.0	1.500000e-01	0.000000e+00	0.0	1.600000e-01	0.000000e+00	0.0	1.700000e-01	0.000000e+00	0.0	1.800000e-01	0.000000e+00	0.0	1.900000e-01	0.000000e+00	0.0	2.000000e-01	0.000000e+00	0.0	2.100000e-01	0.000000e+00	0.0	2.200000e-01	0.000000e+00	0.0	2.300000e-01	0.000000e+00	0.0	2.400000e-01	0.000000e+00	0.0	2.500000e-01	0.000000e+00	0.0	2.600000e-01	0.000000e+00	0.0	2.700000e-01	0.000000e+00	0.0	2.800000e-01	0.000000e+00	0.0	2.900000e-01	0.000000e+00	0.0	3.000000e-01	0.000000e+00	0.0	3.100000e-01	0.000000e+00	0.0	3.200000e-01	0.000000e+00	0.0	3.300000e-01	0.000000e+00	0.0	3.400000e-01	0.000000e+00	0.0	3.500000e-01	0.000000e+00	0.0	3.600000e-01	0.000000e+00	0.0	3.700000e-01	0.000000e+00	0.0	3.800000e-01	0.000000e+00	0.0	3.900000e-01	0.000000e+00	0.0	4.000000e-01	0.000000e+00	0.0	4.100000e-01	0.000000e+00	0.0	4.200000e-01	0.000000e+00	0.0	4.300000e-01	0.000000e+00	0.0	4.400000e-01	0.000000e+00	0.0	4.500000e-01	0.000000e+00	0.0	4.600000e-01	0.000000e+00	0.0	4.700000e-01	0.000000e+00	0.0	4.800000e-01	0.000000e+00	0.0	4.900000e-01	0.000000e+00	0.0	5.000000e-01	0.000000e+00	0.0	5.100000e-01	0.000000e+00	0.0	5.200000e-01	0.000000e+00	0.0	5.300000e-01	0.000000e+00	0.0	5.400000e-01	0.000000e+00	0.0	5.500000e-01	0.000000e+00	0.0	5.600000e-01	0.000000e+00	0.0	5.700000e-01	0.000000e+00	0.0	5.800000e-01	0.000000e+00	0.0	5.900000e-01	0.000000e+00	0.0	6.000000e-01	0.000000e+00	0.0	6.100000e-01	0.000000e+00	0.0	6.200000e-01	0.000000e+00	0.0	6.300000e-01	0.000000e+00	0.0	6.400000e-01	0.000000e+00	0.0	6.500000e-01	0.000000e+00	0.0	6.600000e-01	0.000000e+00	0.0	6.700000e-01	0.000000e+00	0.0	6.800000e-01	0.000000e+00	0.0	6.900000e-01	0.000000e+00	0.0	7.000000e-01	0.000000e+00	0.0	7.100000e-01	0.000000e+00	0.0	7.200000e-01	0.000000e+00	0.0	7.300000e-01	0.000000e+00	0.0	7.400000e-01	0.000000e+00	0.0	7.500000e-01	0.000000e+00	0.0	7.600000e-01	0.000000e+00	0.0	7.700000e-01	0.000000e+00	0.0	7.800000e-01	0.000000e+00	0.0	7.900000e-01	0.000000e+00	0.0	8.000000e-01	0.000000e+00	0.0	8.100000e-01	0.000000e+00	0.0	8.200000e-01	0.000000e+00	0.0	8.300000e-01	0.000000e+00	0.0	8.400000e-01	0.000000e+00	0.0	8.500000e-01	0.000000e+00	0.0	8.600000e-01	0.000000e+00	0.0	8.700000e-01	0.000000e+00	0.0	8.800000e-01	0.000000e+00	0.0	8.900000e-01	0.000000e+00	0.0	9.000000e-01	0.000000e+00	0.0	9.100000e-01	0.000000e+00	0.0	9.200000e-01	0.000000e+00	0.0	9.300000e-01	0.000000e+00	0.0	9.400000e-01	0.000000e+00	0.0	9.500000e-01	0.000000e+00	0.0	9.600000e-01	0.000000e+00	0.0	9.700000e-01	0.000000e+00	0.0	9.800000e-01	0.000000e+00	0.0	9.900000e-01	0.000000e+00	0.0	1.000000e+00	0.000000e+00	0.0	0.000000e+00	1.000000e-02	0.0	1.000000e-02	1.000000e-02	0.0	2.000000e-02	1.000000e-02	0.0	3.000000e-02	1.000000e-02	0.0	4.000000e-02	1.000000e-02	0.0	5.000000e-02	1.000000e-02	0.0	6.000000e-02	1.000000e-02	0.0	7.000000e-02	1.000000e-02	0.0	8.000000e-02	1.000000e-02	0.0	9.000000e-02	1.000000e-02	0.0	1.000000e-01	1.000000e-02	0.0	1.100000e-01	1.000000e-02	0.0	1.200000e-01	1.000000e-02	0.0	1.300000e-01	1.000000e-02	0.0	1.400000e-01	1.000000e-02	0.0	1.500000e-01	1.000000e-02	0.0	1.600000e-01	1.000000e-02	0.0	1.700000e-01	1.000000e-02	0.0	1.800000e-01	1.000000e-02	0.0	1.900000e-01	1.000000e-02	0.0	2.000000e-01	1.000000e-02	0.0	2.100000e-01	1.000000e-02	0.0	2.200000e-01	1.000000e-02	0.0	2.300000e-01	1.000000e-02	0.0	2.400000e-01	1.000000e-02	0.0	2.500000e-01	1.000000e-02	0.0	2.600000e-01	1.000000e-02	0.0	2.700000e-01	1.000000e-02	0.0	2.800000e-01	1.000000e-02	0.0	2.900000e-01	1.000000e-02	0.0	3.000000e-01	1.000000e-02	0.0	3.100000e-01	1.000000e-02	0.0	3.200000e-01	1.000000e-02	0.0	3.300000e-01	1.000000e-02	0.0	3.400000e-01	1.000000e-02	0.0	3.500000e-01	1.000000e-02	0.0	3.600000e-01	1.000000e-02	0.0	3.700000e-01	1.000000e-02	0.0	3.800000e-01	1.000000e-02	0.0	3.900000e-01	1.000000e-02	0.0	4.000000e-01	1.000000e-02	0.0	4.100000e-01	1.000000e-02	0.0	4.200000e-01	1.000000e-02	0.0	4.300000e-01	1.000000e-02	0.0	4.400000e-01	1.000000e-02	0.0	4.500000e-01	1.000000e-02	0.0	4.600000e-01	1.000000e-02	0.0	4.700000e-01	1.000000e-02	0.0	4.800000e-01	1.000000e-02	0.0	4.900000e-01	1.000000e-02	0.0	5.000000e-01	1.000000e-02	0.0	5.100000e-01	1.000000e-02	0.0	5.200000e-01	1.000000e-02	0.0	5.300000e-01	1.000000e-02	0.0	5.400000e-01	1.000000e-02	0.0	5.500000e-01	1.000000e-02	0.0	5.600000e-01	1.000000e-02	0.0	5.700000e-01	1.000000e-02	0.0	5.800000e-01	1.000000e-02	0.0	5.900000e-01	1.000000e-02	0.0	6.000000e-01	1.000000e-02	0.0	6.100000e-01	1.000000e-02	0.0	6.200000e-01	1.000000e-02	0.0	6.300000e-01	1.000000e-02	0.0	6.400000e-01	1.000000e-02	0.0	6.500000e-01	1.000000e-02	0.0	6.600000e-01	1.000000e-02	0.0	6.700000e-01	1.000000e-02	0.0	6.800000e-01	1.000000e-02	0.0	6.900000e-01	1.000000e-02	0.0	7.000000e-01	1.000000e-02	0.0	7.100000e-01	1.000000e-02	0.0	7.200000e-01	1.000000e-02	0.0	7.300000e-01	1.000000e-02	0.0	7.400000e-01	1.000000e-02	0.0	7.500000e-01	1.000000e-02	0.0	7.600000e-01	1.000000e-02	0.0	7.700000e-01	1.000000e-02	0.0	7.800000e-01	1.000000e-02	0.0	7.900000e-01	1.000000e-02	0.0	8.000000e-01	1.000000e-02	0.0	8.100000e-01	1.000000e-02	0.0	8.200000e-01	1.000000e-02	0.0	8.300000e-01	1.000000e-02	0.0	8.400000e-01	1.000000e-02	0.0	8.500000e-01	1.000000e-02	0.0	8.600000e-01	1.000000e-02	0.0	8.700000e-01	1.000000e-02	0.0	8.800000e-01	1.000000e-02	0.0	8.900000e-01	1.000000e-02	0.0	9.000000e-01	1.000000e-02	0.0	9.100000e-01	1.000000e-02	0.0	9.200000e-01	1.000000e-02	0.0	9.300000e-01	1.000000e-02	0.0	9.400000e-01	1.000000e-02	0.0	9.500000e-01	1.000000e-02	0.0	9.600000e-01	1.000000e-02	0.0	9.700000e-01	1.000000e-02	0.0	9.800000e-01	1.000000e-02	0.0	9.900000e-01	1.000000e-02	0.0	1.000000e+00	1.000000e-02	0.0	0.000000e+00	2.000000e-02	0.0	1.000000e-02	2.000000e-02	0.0	2.000000e-02	2.000000e-02	0.0	3.000000e-02	2.000000e-02	0.0	4.000000e-02	2.000000e-02	0.0	5.000000e-02	2.000000e-02	0.0	6.000000e-02	2.000000e-02	0.0	7.000000e-02	2.000000e-02	0.0	8.000000e-02	2.000000e-02	0.0	9.000000e-02	2.000000e-02	0.0	1.000000e-01	2.000000e-02	0.0	1.100000e-01	2.000000e-02	0.0	1.200000e-01	2.000000e-02	0.0	1.300000e-01	2.000000e-02	0.0	1.400000e-01	2.000000e-02	0.0	1.500000e-01	2.000000e-02	0.0	1.600000e-01	2.000000e-02	0.0	1.700000e-01	2.000000e-02	0.0	1.800000e-01	2.000000e-02	0.0	1.900000e-01	2.000000e-02	0.0	2.000000e-01	2.000000e-02	0.0	2.100000e-01	2.000000e-02	0.0	2.200000e-01	2.000000e-02	0.0	2.300000e-01	2.000000e-02	0.0	2.400000e-01	2.000000e-02	0.0	2.500000e-01	2.000000e-02	0.0	2.600000e-01	2.000000e-02	0.0	2.700000e-01	2.000000e-02	0.0	2.800000e-01	2.000000e-02	0.0	2.900000e-01	2.000000e-02	0.0	3.000000e-01	2.000000e-02	0.0	3.100000e-01	2.000000e-02	0.0	3.200000e-01	2.000000e-02	0.0	3.300000e-01	2.000000e-02	0.0	3.400000e-01	2.000000e-02	0.0	3.500000e-01	2.000000e-02	0.0	3.600000e-01	2.000000e-02	0.0	3.700000e-01	2.000000e-02	0.0	3.800000e-01	2.000000e-02	0.0	3.900000e-01	2.000000e-02	0.0	4.000000e-01	2.000000e-02	0.0	4.100000e-01	2.000000e-02	0.0	4.200000e-01	2.000000e-02	0.0	4.300000e-01	2.000000e-02	0.0	4.400000e-01	2.000000e-02	0.0	4.500000e-01	2.000000e-02	0.0	4.600000e-01	2.000000e-02	0.0	4.700000e-01	2.000000e-02	0.0	4.800000e-01	2.000000e-02	0.0	4.900000e-01	2.000000e-02	0.0	5.000000e-01	2.000000e-02	0.0	5.100000e-01	2.000000e-02	0.0	5.200000e-01	2.000000e-02	0.0	5.300000e-01	2.000000e-02	0.0	5.400000e-01	2.000000e-02	0.0	5.500000e-01	2.000000e-02	0.0	5.600000e-01	2.000000e-02	0.0	5.700000e-01	2.000000e-02	0.0	5.800000e-01	2.000000e-02	0.0	5.900000e-01	2.000000e-02	0.0	6.000000e-01	2.000000e-02	0.0	6.100000e-01	2.000000e-02	0.0	6.200000e-01	2.000000e-02	0.0	6.300000e-01	2.000000e-02	0.0	6.400000e-01	2.000000e-02	0.0	6.500000e-01	2.000000e-02	0.0	6.600000e-01	2.000000e-02	0.0	6.700000e-01	2.000000e-02	0.0	6.800000e-01	2.000000e-02	0.0	6.900000e-01	2.000000e-02	0.0	7.000000e-01	2.000000e-02	0.0	7.100000e-01	2.000000e-02	0.0	7.200000e-01	2.000000e-02	0.0	7.300000e-01	2.000000e-02	0.0	7.400000e-01	2.000000e-02	0.0	7.500000e-01	2.000000e-02	0.0	7.600000e-01	2.000000e-02	0.0	7.700000e-01	2.000000e-02	0.0	7.800000e-01	2.000000e-02	0.0	7.900000e-01	2.000000e-02	0.0	8.000000e-01	2.000000e-02	0.0	8.100000e-01	2.000000e-02	0.0	8.200000e-01	2.000000e-02	0.0	8.300000e-01	2.000000e-02	0.0	8.400000e-01	2.000000e-02	0.0	8.500000e-01	2.000000e-02	0.0	8.600000e-01	2.000000e-02	0.0	8.700000e-01	2.000000e-02	0.0	8.800000e-01	2.000000e-02	0.0	8.900000e-01	2.000000e-02	0.0	9.000000e-01	2.000000e-02	0.0	9.100000e-01	2.000000e-02	0.0	9.200000e-01	2.000000e-02	0.0	9.300000e-01	2.000000e-02	0.0	9.400000e-01	2.000000e-02	0.0	9.500000e-01	2.000000e-02	0.0	9.600000e-01	2.000000e-02	0.0	9.700000e-01	2.000000e-02	0.0	9.800000e-01	2.000000e-02	0.0	9.900000e-01	2.000000e-02	0.0	1.000000e+00	2.000000e-02	0.0	0.000000e+00	3.000000e-02	0.0	1.000000e-02	3.000000e-02	0.0	2.000000e-02	3.000000e-02	0.0	3.000000e-02	3.000000e-02	0.0	4.000000e-02	3.000000e-02	0.0	5.000000e-02	3.000000e-02	0.0	6.000000e-02	3.000000e-02	0.0	7.000000e-02	3.000000e-02	0.0	8.000000e-02	3.000000e-02	0.0	9.000000e-02	3.000000e-02	0.0	1.000000e-01	3.000000e-02	0.0	1.100000e-01	3.000000e-02	0.0	1.200000e-01	3.000000e-02	0.0	1.300000e-01	3.000000e-02	0.0	1.400000e-01	3.000000e-02	0.0	1.500000e-01	3.000000e-02	0.0	1.600000e-01	3.000000e-02	0.0	1.700000e-01	3.000000e-02	0.0	1.800000e-01	3.000000e-02	0.0	1.900000e-01	3.000000e-02	0.0	2.000000e-01	3.000000e-02	0.0	2.100000e-01	3.000000e-02	0.0	2.200000e-01	3.000000e-02	0.0	2.300000e-01	3.000000e-02	0.0	2.400000e-01	3.000000e-02	0.0	2.500000e-01	3.000000e-02	0.0	2.600000e-01	3.000000
[...]
POINT_DATA 10201

SCALARS Height double 1
LOOKUP_TABLE default
9.992509e-01	9.992721e-01	9.992611e-01	9.992560e-01	9.992522e-01	9.992511e-01	9.992519e-01	9.992515e-01	9.992512e-01	9.992537e-01	9.992554e-01	9.992550e-01	9.992521e-01	9.992480e-01	9.992440e-01	9.992414e-01	9.992415e-01	9.992429e-01	9.992445e-01	9.992438e-01	9.992410e-01	9.992317e-01	9.992183e-01	9.992052e-01	9.991971e-01	9.991900e-01	9.991857e-01	9.991818e-01	9.991766e-01	9.991696e-01	9.991612e-01	9.991521e-01	9.991431e-01	9.991344e-01	9.991256e-01	9.991178e-01	9.991096e-01	9.991004e-01	9.990880e-01	9.990727e-01	9.990545e-01	9.990350e-01	9.990157e-01	9.989978e-01	9.989816e-01	9.989661e-01	9.989495e-01	9.989303e-01	9.989102e-01	9.988934e-01	9.988806e-01	9.988835e-01	9.989608e-01	9.992345e-01	9.999989e-01	1.001847e+00	1.005431e+00	1.010441e+00	1.015166e+00	1.017856e+00	1.018626e+00	1.018553e+00	1.017733e+00	1.015895e+00	1.012809e+00	1.008760e+00	1.004256e+00	9.998225e-01	9.958427e-01	9.925575e-01	9.901457e-01	9.886571e-01	9.879503e-01	9.877072e-01	9.876538e-01	9.877939e-01	9.882425e-01	9.889964e-01	9.898353e-01	9.904539e-01	9.906446e-01	9.903553e-01	9.896717e-01	9.888292e-01	9.881310e-01	9.877533e-01	9.876562e-01	9.877149e-01	9.879555e-01	9.886930e-01	9.902332e-01	9.927077e-01	9.960762e-01	1.000264e+00	1.005319e+00	1.011455e+00	1.018813e+00	1.026760e+00	1.033552e+00	1.037230e+00	1.038720e+00	9.992715e-01	9.992914e-01	9.992653e-01	9.992603e-01	9.992568e-01	9.992557e-01	9.992560e-01	9.992564e-01	9.992575e-01	9.992580e-01	9.992567e-01	9.992537e-01	9.992491e-01	9.992441e-01	9.992401e-01	9.992370e-01	9.992334e-01	9.992374e-01	9.992336e-01	9.992299e-01	9.992249e-01	9.992159e-01	9.992074e-01	9.991955e-01	9.991827e-01	9.991770e-01	9.991718e-01	9.991672e-01	9.991621e-01	9.991559e-01	9.991490e-01	9.991422e-01	9.991363e-01	9.991315e-01	9.991265e-01	9.991203e-01	9.991128e-01	9.991034e-01	9.990911e-01	9.990758e-01	9.990575e-01	9.990378e-01	9.990185e-01	9.990006e-01	9.989844e-01	9.989687e-01	9.989516e-01	9.989316e-01	9.989108e-01	9.988927e-01	9.988770e-01	9.988650e-01	9.988785e-01	9.990191e-01	9.996331e-01	1.001508e+00	1.005447e+00	1.010806e+00	1.015401e+00	1.017909e+00	1.018636e+00	1.018608e+00	1.018004e+00	1.016079e+00	1.012835e+00	1.008645e+00	1.004087e+00	9.996492e-01	9.956604e-01	9.923824e-01	9.900124e-01	9.885888e-01	9.879271e-01	9.876971e-01	9.875937e-01	9.877061e-01	9.881940e-01	9.889840e-01	9.898366e-01	9.904579e-01	9.906487e-01	9.903579e-01	9.896702e-01	9.888118e-01	9.880763e-01	9.876675e-01	9.876100e-01	9.877092e-01	9.879344e-01	9.886146e-01	9.900827e-01	9.925036e-01	9.958351e-01	9.999503e-01	1.004878e+00	1.011029e+00	1.018824e+00	1.027307e+00	1.034065e+00	1.037355e+00	1.038771e+00	9.992785e-01	9.993014e-01	9.992761e-01	9.992712e-01	9.992674e-01	9.992652e-01	9.992642e-01	9.992627e-01	9.992604e-01	9.992591e-01	9.992573e-01	9.992549e-01	9.992520e-01	9.992491e-01	9.992461e-01	9.992420e-01	9.992400e-01	9.992406e-01	9.992398e-01	9.992396e-01	9.992363e-01	9.992257e-01	9.992138e-01	9.992033e-01	9.991951e-01	9.991887e-01	9.991861e-01	9.991822e-01	9.991767e-01	9.991689e-01	9.991597e-01	9.991504e-01	9.991417e-01	9.991341e-01	9.991279e-01	9.991225e-01	9.991161e-01	9.991073e-01	9.990959e-01	9.990815e-01	9.990644e-01	9.990460e-01	9.990276e-01	9.990102e-01	9.989938e-01	9.989781e-01	9.989610e-01	9.989406e-01	9.989204e-01	9.989022e-01	9.988849e-01	9.988719e-01	9.988858e-01	9.990294e-01	9.996612e-01	1.001623e+00	1.005683e+00	1.010990e+00	1.015396e+00	1.017767e+00	1.018489e+00	1.018495e+00	1.018024e+00	1.016135e+00	1.012777e+00	1.008615e+00	1.004168e+00	9.998022e-01	9.958545e-01	9.926067e-01	9.902407e-01	9.887838e-01	9.880730e-01	9.877940e-01	9.876588e-01	9.877227e-01	9.882085e-01	9.890123e-01	9.898439e-01	9.904370e-01	9.906176e-01	9.903403e-01	9.896816e-01	9.888396e-01	9.880880e-01	9.876918e-01	9.876822e-01	9.878098e-01	9.880833e-01	9.888120e-01	9.903042e-01	9.927082e-01	9.960032e-01	1.000078e+00	1.004965e+00	1.011109e+00	1.018995e+00	1.027563e+00	1.034068e+00	1.037113e+00	1.038460e+00	9.992760e-01	9.992972e-01	9.992743e-01	9.992693e-01	9.992656e-01	9.992639e-01	9.992627e-01	9.992614e-01	9.992599e-01	9.992581e-01	9.992558e-01	9.992531e-01	9.992503e-01	9.992479e-01	9.992459e-01	9.992440e-01	9.992410e-01	9.992431e-01	9.992417e-01	9.992405e-01	9.992368e-01	9.992265e-01	9.992156e-01	9.992050e-01	9.991961e-01	9.991900e-01	9.991846e-01	9.991783e-01	9.991712e-01	9.991635e-01	9.991552e-01	9.991468e-01	9.991392e-01	9.991325e-01	9.991267e-01	9.991211e-01	9.991146e-01	9.991063e-01	9.990950e-01	9.990806e-01	9.990637e-01	9.990456e-01	9.990274e-01	9.990099e-01	9.989932e-01	9.989771e-01	9.989594e-01	9.989385e-01	9.989181e-01	9.989001e-01	9.988825e-01	9.988678e-01	9.988755e-01	9.990014e-01	9.996106e-01	1.001583e+00	1.005704e+00	1.011005e+00	1.015325e+00	1.017615e+00	1.018332e+00	1.018351e+00	1.017957e+00	1.016229e+00	1.012836e+00	1.008618e+00	1.004200e+00	9.998810e-01	9.959447e-01	9.926929e-01	9.903189e-01	9.888485e-01	9.881183e-01	9.878291e-01	9.876865e-01	9.877016e-01	9.881460e-01	9.889571e-01	9.897854e-01	9.903551e-01	9.905252e-01	9.902615e-01	9.896248e-01	9.887821e-01	9.880282e-01	9.876815e-01	9.877153e-01	9.878482e-01	9.881312e-01	9.888762e-01	9.903777e-01	9.927840e-01	9.960715e-01	1.000123e+00	1.004947e+00	1.011072e+00	1.019071e+00	1.027653e+00	1.033905e+00	1.036828e+00	1.038125e+00	9.992713e-01	9.992912e-01	9.992702e-01	9.992658e-01	9.992622e-01	9.992608e-01	9.992596e-01	9.992579e-01	9.992567e-01	9.992551e-01	9.992526e-01	9.992495e-01	9.992462e-01	9.992436e-01	9.992418e-01	9.992406e-01	9.992392e-01	9.992418e-01	9.992405e-01	9.992382e-01	9.992345e-01	9.992252e-01	9.992151e-01	9.992045e-01	9.991950e-01	9.991875e-01	9.991811e-01	9.991744e-01	9.991673e-01	9.991601e-01	9.991524e-01	9.991443e-01	9.991364e-01	9.991291e-01	9.991230e-01	9.991174e-01	9.991111e-01	9.991024e-01	9.990910e-01	9.990767e-01	9.990602e-01	9.990422e-01	9.990238e-01	9.990061e-01	9.989891e-01	9.989726e-01	9.989552e-01	9.989341e-01	9.989136e-01	9.988955e-01	9.988776e-01	9.988620e-01	9.988673e-01	9.989872e-01	9.995890e-01	1.001568e+00	1.005702e+00	1.010980e+00	1.015209e+00	1.017425e+00	1.018126e+00	1.018156e+00	1.017820e+00	1.016259e+00	1.012955e+00	1.008694e+00	1.004282e+00	1.000012e+00	9.961087e-01	9.928518e-01	9.904531e-01	9.889531e-01	9.881949e-01	9.878846e-01	9.877328e-01	9.877030e-01	9.880683e-01	9.888503e-01	9.896838e-01	9.902449e-01	9.904078e-01	9.901523e-01	9.895227e-01	9.886764e-01	9.879630e-01	9.876952e-01	9.877641e-01	9.879039e-01	9.882092e-01	9.889804e-01	9.905073e-01	9.929327e-01	9.962181e-01	1.000234e+00	1.005016e+00	1.011161e+00	1.019213e+00	1.027646e+00	1.033645e+00	1.036447e+00	1.037698e+00	9.992654e-01	9.992838e-01	9.992641e-01	9.992604e-01	9.992573e-01	9.992559e-01	9.992552e-01	9.992538e-01	9.992529e-01	9.992521e-01	9.992503e-01	9.992473e-01	9.992436e-01	9.992406e-01	9.992387e-01	9.992379e-01	9.992372e-01	9.992391e-01	9.992369e-01	9.992334e-01	9.992294e-01	9.992212e-01	9.992130e-01	9.992025e-01	9.991934e-01	9.991864e-01	9.991797e-01	9.991732e-01	9.991667e-01	9.991598e-01	9.991520e-01	9.991435e-01	9.991344e-01	9.991264e-01	9.991194e-01	9.991132e-01	9.991063e-01	9.990976e-01	9.990863e-01	9.990722e-01	9.990555e-01	9.990370e-01	9.990181e-01	9.989999e-01	9.989825e-01	9.989659e-01	9.989486e-01	9.989277e-01	9.989069e-01	9.988885e-01	9.988702e-01	9.988538e-01	9.988585e-01	9.989781e-01	9.995807e-01	1.001561e+00	1.005679e+00	1.010903e+00	1.015055e+00	1.017216e+00	1.017896e+00	1.017926e+00	1.017643e+00	1.016230e+00	1.013088e+00	1.008846e+00	1.004410e+00	1.000174e+00	9.963227e-01	9.930740e-01	9.906419e-01	9.890916e-01	9.882894e-01	9.879507e-01	9.877887e-01	9.877197e-01	9.879946e-01	9.887080e-01	9.895379e-01	9.901113e-01	9.902768e-01	9.900175e-01	9.893755e-01	9.885422e-01	9.879082e-01	9.877243e-01	9.878205e-01	9.879679e-01	9.883020e-01	9.891178e-01	9.906904e-01	9.931432e-01	9.964176e-01	1.000384e+00	1.005154e+00	1.011350e+00	1.019346e+00	1.027521e+00	1.033298e+00	1.036006e+00	1.037224e+00	9.992591e-01	9.992749e-01	9.992576e-01	9.992552e-01	9.992525e-01	9.992513e-01	9.992508e-01	9.992501e-01	9.992500e-01	9.992500e-01	9.992489e-01	9.992465e-01	9.992428e-01	9.992391e-01	9.992363e-01	9.992347e-01	9.992331e-01	9.992332e-01	9.992312e-01	9.992277e-01	9.992231e-01	9.992153e-01	9.992074e-01	9.991976e-01	9.991887e-01	9.991830e-01	9.991775e-01	9.991724e-01	9.991666e-01	9.991596e-01	9.991509e-01	9.991409e-01	9.991316e-01	9.991232e-01	9.991157e-01	9.991090e-01	9.991016e-01	9.990928e-01	9.990815e-01	9.990674e-01	9.990505e-01	9.990317e-01	9.990123e-01	9.989937e-01	9.989763e-01	9.989594e-01	9.989424e-01	9.989218e-01	9.989008e-01	9.988818e-01	9.988626e-01	9.988463e-01	9.988524e-01	9.989765e-01	9.995860e-01	1.001558e+00	1.005628e+00	1.010771e+00	1.014858e+00	1.016987e+00	1.017656e+00	1.017686e+00	1.017434e+00	1.016159e+00	1.013202e+00	1.009039e+00	1.004583e+00	1.000363e+00	9.965568e-01	9.933309e-01	9.908758e-01	9.892699e-01	9.884060e-01	9.880312e-01	9.878527e-01	9.877480e-01	9.879282e-01	9.885466e-01	9.893543e-01	9.899430e-01	9.901155e-01	9.898475e-01	9.891930e-01	9.883959e-01	9.878633e-01	9.877626e-01	9.878826e-01	9.880452e-01	9.884171e-01	9.892925e-01	9.909169e-01	9.933890e-01	9.966415e-01	1.000577e+00	1.005365e+00	1.011584e+00	1.019431e+00	1.027318e+00	1.032875e+00	1.035523e+00	1.036722e+00	9.992509e-01	9.992644e-01	9.992510e-01	9.992498e-01	9.992478e-01	9.992469e-01	9.992471e-01	9.992476e-01	9.992479e-01	9.992485e-01	9.992481e-01	9.992464e-01	9.992432e-01	9.992393e-01	9.992355e-01	9.992322e-01	9.992295e-01	9.992261e-01	9.992264e-01	9.992223e-01	9.992176e-01	9.992095e-01	9.992008e-01	9.991912e-01	9.991845e-01	9.991797e-01	9.991756e-01	9.991710e-01	9.991651e-01	9.991571e-01	9.991476e-01	9.991377e-01	9.991281e-01	9.991198e-01	9.991124e-01	9.991052e-01	9.990973e-01	9.990881e-01	9.990765e-01	9.990621e-01	9.990450e-01	9.990260e-01	9.990066e-01	9.989880e-01	9.989706e-01	9.989540e-01	9.989365e-01	9.989161e-01	9.988953e-01	9.988757e-01	9.988559e-01	9.988405e-01	9.988502e-01	9.989845e-01	9.996116e-01	1.001572e+00	1.005553e+00	1.010583e+00	1.014611e+00	1.016729e+00	1.017405e+00	1.017440e+00	1.017213e+00	1.016066e+00	1.013303e+00	1.009256e+00	1.004815e+00	1.000584e+00	9.967999e-01	9.935988e-01	9.911327e-01	9.894782e-01	9.885528e-01	9.881315e-01	9.879310e-01	9.877891e-01	9.878672e-01	9.883681e-01	9.891207e-01	9.897103e-01	9.898904e-01	9.896152e-01	9.889685e-01	9.882400e-01	9.878257e-01	9.878122e-01	9.879581e-01	9.881417e-01	9.885601e-01	9.894949e-01	9.911661e-01	9.936488e-01	9.968830e-01	1.000818e+00	1.005645e+00	1.011844e+00	1.019476e+00	1.027031e+00	1.032386e+00	1.034999e+00	1.036199e+00	9.992450e-01	9.992578e-01	9.992465e-01	9.992461e-01	9.992447e-01	9.992446e-01	9.992457e-01	9.992472e-01	9.992478e-01	9.992480e-01	9.992475e-01	9.992456e-01	9.992427e-01	9.992388e-01	9.992346e-01	9.992307e-01	9.992273e-01	9.992245e-01	9.992210e-01	9.992196e-01	9.992145e-01	9.992060e-01	9.991976e-01	9.991887e-01	9.991838e-01	9.991785e-01	9.991744e-01	9.991694e-01	9.991628e-01	9.991542e-01	9.991445e-01	9.991348e-01	9.991261e-01	9.991184e-01	9.991107e-01	9.991031e-01	9.990946e-01	9.990848e-01	9.990727e-01	9.990579e-01	9.990407e-01	9.990220e-01	9.990030e-01	9.989847e-01	9.989673e-01	9.989503e-01	9.989320e-01	9.989117e-01	9.988909e-01	9.988714e-01	9.988516e-01	9.988365e-01	9.988513e-01	9.990013e-01	9.996503e-01	1.001600e+00	1.005467e+00	1.010345e+00	1.014306e+00	1.016435e+00	1.017136e+00	1.017182e+00	1.016980e+00	1.015961e+00	1.013402e+00	1.009499e+00	1.005096e+00	1.000858e+00	9.970781e-01	9.938918e-01	9.914171e-01	9.897195e-01	9.887317e-01	9.882536e-01	9.880299e-01	9.878527e-01	9.878254e-01	9.881879e-01	9.888591e-01	9.894370e-01	9.896223e-01	9.893454e-01	9.887210e-01	9.880875e-01	9.878088e-01	9.878826e-01	9.880520e-01	9.882609e-01	9.887329e-01	9.897290e-01	9.914432e-01	9.939370e-01	9.971664e-01	1.001120e+00	1.005984e+00	1.012133e+00	1.019504e+00	1.026688e+00	1.031832e+00	1.034421e+00	1.035640e+00	9.992436e-01	9.992549e-01	9.992453e-01	9.992459e-01	9.992448e-01	9.992450e-01	9.992462e-01	9.992481e-01	9.992484e-01	9.992482e-01	9.992473e-01	9.992451e-01	9.992412e-01	9.992370e-01	9.992327e-01	9.992286e-01	9.992250e-01	9.992231e-01	9.992204e-01	9.992171e-01	9.992128e-01	9.992049e-01	9.991980e-01	9.991911e-01	9.991836e-01	9.991788e-01	9.991741e-01	9.991685e-01	9.991613e-01	9.991526e-01	9.991434e-01	9.991343e-01	9.991259e-01	9.991182e-01	9.991101e-01	9.991020e-01	9.990930e-01	9.990825e-01	9.990699e-01	9.990550e-01	9.990380e-01	9.990199e-01	9.990016e-01	9.989839e-01	9.989666e-01	9.989491e-01	9.989300e-01	9.989091e-01	9.988883e-01	9.988690e-01	9.988500e-01	9.988351e-01	9.988558e-01	9.990250e-01	9.997026e-01	1.001636e+00	1.005373e+00	1.010068e+00	1.013946e+00	1.016095e+00	1.016838e+00	1.016902e+00	1.016730e+00	1.015847e+00	1.013506e+00	1.009774e+00	1.005439e+00	1.001205e+00	9.974206e-01	9.942357e-01	9.917465e-01	9.900026e-01	9.889465e-01	9.884042e-01	9.881383e-01	9.879382e-01	9.878158e-01	9.880226e-01	9.885847e-01	9.891347e-01	9.893215e-01	9.890496e-01	9.884662e-01	9.879540e-01	9.878229e-01	9.879720e-01	9.881574e-01	9.884066e-01	9.889418e-01	9.900047e-01	9.917653e-01	9.942781e-01	9.975194e-01	1.001503e+00	1.006392e+00	1.012459e+00	1.019526e+00	1.026297e+00	1.031207e+00	1.033774e+00	1.035023e+00	9.992438e-01	9.992548e-01	9.992459e-01	9.992471e-01	9.992460e-01	9.992461e-01	9.992471e-01	9.992483e-01	9.992491e-01	9.992481e-01	9.992456e-01	9.992435e-01	9.992399e-01	9.992353e-01	9.992308e-01	9.992269e-01	9.992235e-01	9.992217e-01	9.992205e-01	9.992180e-01	9.992134e-01	9.992071e-01	9.991998e-01	9.991912e-01	9.991850e-01	9.991799e-01	9.991746e-01	9.991683e-01	9.991606e-01	9.991522e-01	9.991437e-01	9.991349e-01	9.991265e-01	9.991185e-01	9.991100e-01	9.991013e-01	9.990917e-01	9.990806e-01	9.990676e-01	9.990526e-01	9.990359e-01	9.990184e-01	9.990009e-01	9.989838e-01	9.989667e-01	9.989488e-01	9.989289e-01	9.989074e-01	9.988865e-01	9.988678e-01	9.988495e-01	9.988360e-01	9.988634e-01	9.990549e-01	9.997662e-01	1.001683e+00	1.005274e+00	1.009765e+00	1.013540e+00	1.015705e+00	1.016500e+00	1.016589e+00	1.016454e+00	1.015711e+00	1.013606e+00	1.010074e+00	1.005836e+00	1.001625e+00	9.978372e-01	9.946450e-01	9.921311e-01	9.903301e-01	9.891938e-01	9.885742e-01	9.882569e-01	9.880316e-01	9.878327e-01	9.878784e-01	9.883004e-01	9.888036e-01	9.889882e-01	9.887265e-01	9.882061e-01	9.878444e-01	9.878596e-01	9.880666e-01	9.882730e-01	9.885731e-01	9.891847e-01	9.903254e-01	9.921419e-01	9.946842e-01	9.979488e-01	1.001965e+00	1.006866e+00	1.012818e+00	1.019538e+00	1.025857e+00	1.030508e+00	1.033043e+00	1.034325e+00	9.992438e-01	9.992553e-01	9.992464e-01	9.992479e-01	9.992467e-01	9.992465e-01	9.992469e-01	9.992477e-01	9.992477e-01	9.992471e-01	9.992447e-01	9.992411e-01	9.992381e-01	9.992342e-01	9.992298e-01	9.992259e-01	9.992227e-01	9.992206e-01	9.992183e-01	9.992147e-01	9.992100e-01	9.992041e-01	9.991982e-01	9.991914e-01	9.991858e-01	9.991809e-01	9.991753e-01	9.991688e-01	9.991614e-01	9.991529e-01	9.991434e-01	9.991347e-01	9.991262e-01	9.991181e-01	9.991092e-01	9.991001e-01	9.990899e-01	9.990783e-01	9.990649e-01	9.990496e-01	9.990331e-01	9.990161e-01	9.989992e-01	9.989826e-01	9.989656e-01	9.989473e-01	9.989266e-01	9.989045e-01	9.988837e-01	9.988656e-01	9.988483e-01	9.988369e-01	9.988723e-01	9.990886e-01	9.998377e-01	1.001738e+00	1.005174e+00	1.009444e+00	1.013097e+00	1.015269e+00	1.016116e+00	1.016245e+00	1.016138e+00	1.015538e+00	1.013681e+00	1.010379e+00	1.006265e+00	1.002095e+00	9.983152e-01	9.951143e-01	9.925664e-01	9.906964e-01	9.894672e-01	9.887564e-01	9.883768e-01	9.881204e-01	9.878630e-01	9.877535e-01	9.879993e-01	9.884248e-01	9.886000e-01	9.883578e-01	9.879349e-01	9.877554e-01	9.879072e-01	9.881578e-01	9.883915e-01	9.887549e-01	9.894555e-01	9.906852e-01	9.925666e-01	9.951465e-01	9.984383e-01	1.002483e+00	1.007381e+00	1.013187e+00	1.019519e+00	1.025363e+00	1.029738e+00	1.032228e+00	1.033542e+00	9.992430e-01	9.992543e-01	9.992451e-01	9.992471e-01	9.992456e-01	9.992450e-01	9.992449e-01	9.992453e-01	9.992448e-01	9.992440e-01	9.992421e-01	9.992393e-01	9.992351e-01	9.992321e-01	9.992284e-01	9.992246e-01	9.992216e-01	9.992193e-01	9.992162e-01	9.992120e-01	9.992068e-01	9.992013e-01	9.991961e-01	9.991903e-01	9.991852e-01	9.991803e-01	9.991749e-01	9.991680e-01	9.991595e-01	9.991504e-01	9.991412e-01	9.991328e-01	9.991244e-01	9.991160e-01	9.991072e-01	9.990979e-01	9.990873e-01	9.990751e-01	9.990611e-01	9.990456e-01	9.990292e-01	9.990125e-01	9.989960e-01	9.989797e-01	9.989627e-01	9.989438e-01	9.989224e-01	9.988997e-01	9.988791e-01	9.988617e-01	9.988451e-01	9.988354e-01	9.988808e-01	9.991258e-01	9.999146e-01	1.001797e+00	1.005073e+00	1.009111e+00	1.012627e+00	1.014795e+00	1.015693e+00	1.015863e+00	1.015784e+00	1.015314e+00	1.013709e+00	1.010660e+00	1.006700e+00	1.002595e+00	9.988365e-01	9.956301e-01	9.930433e-01	9.910969e-01	9.897666e-01	9.889532e-01	9.884938e-01	9.881956e-01	9.878935e-01	9.876439e-01	9.876790e-01	9.879786e-01	9.881303e-01	9.879274e-01	9.876527e-01	9.876819e-01	9.879548e-01	9.882372e-01	9.885134e-01	9.889545e-01	9.897545e-01	9.910785e-01	9.930302e-01	9.956514e-01	9.989686e-01	1.003033e+00	1.007910e+00	1.013537e+00	1.019450e+00	1.024811e+00	1.028908e+00	1.031338e+00	1.032677e+00	9.992413e-01	9.992525e-01	9.992422e-01	9.992447e-01	9.992428e-01	9.992419e-01	9.992413e-01	9.992415e-01	9.992410e-01	9.992396e-01	9.992383e-01	9.992361e-01	9.992332e-01	9.992295e-01	9.992265e-01	9.992235e-01	9.992199e-01	9.992169e-01	9.992127e-01	9.992077e-01	9.992017e-01	9.991967e-01	9.991922e-01	9.991875e-01	9.991828e-01	9.991785e-01	9.991716e-01	9.991641e-01	9.991555e-01	9.991466e-01	9.991380e-01	9.991294e-01	9.991208e-01	9.991128e-01	9.991040e-01	9.990945e-01	9.990835e-01	9.990708e-01	9.990563e-01	9.990405e-01	9.990242e-01	9.990078e-01	9.989917e-01	9.989755e-01	9.989584e-01	9.989391e-01	9.989169e-01	9.988938e-01	9.988733e-01	9.988560e-01	9.988394e-01	9.988318e-01	9.988897e-01	9.991665e-01	9.999959e-01	1.001859e+00	1.004972e+00	1.008770e+00	1.012134e+00	1.014289e+00	1.015238e+00	1.015452e+00	1.015395e+00	1.015036e+00	1.013679e+00	1.010904e+00	1.007124e+00	1.003112e+00	9.993928e-01	9.961875e-01	9.935611e-01	9.915354e-01	9.901000e-01	9.891748e-01	9.886188e-01	9.882571e-01	9.879157e-01	9.875476e-01	9.873524e-01	9.874639e-01	9.875685e-01	9.874372e-01	9.873730e-01	9.876215e-01	9.879927e-01	9.883098e-01	9.886485e-01	9.891834e-01	9.900879e-01	9.915084e-01	9.935327e-01	9.961955e-01	9.995317e-01	1.003600e+00	1.008428e+00	1.013848e+00	1.019331e+00	1.024209e+00	1.028030e+00	1.030388e+00	1.031744e+00	9.992390e-01	9.992507e-01	9.992388e-01	9.992417e-01	9.992393e-01	9.992380e-01	9.992370e-01	9.992371e-01	9.992366e-01	9.992352e-01	9.992333e-01	9.992321e-01	9.992299e-01	9.992273e-01	9.992233e-01	9.992212e-01	9.992179e-01	9.992136e-01	9.992086e-01	9.992023e-01	9.991956e-01	9.991911e-01	9.991874e-01	9.991836e-01	9.991799e-01	9.991741e-01	9.991673e-01	9.991593e-01	9.991509e-01	9.991427e-01	9.991338e-01	9.991254e-01	9.991172e-01	9.991092e-01	9.991003e-01	9.990904e-01	9.990789e-01	9.990655e-01	9.990505e-01	9.990346e-01	9.990186e-01	9.990026e-01	9.989868e-01	9.989707e-01	9.989535e-01	9.989338e-01	9.989110e-01	9.988878e-01	9.988672e-01	9.988491e-01	9.988318e-01	9.988288e-01	9.989007e-01	9.992101e-01	1.000081e+00	1.001923e+00	1.004874e+00	1.008427e+00	1.011626e+00	1.013758e+00	1.014757e+00	1.015015e+00	1.014980e+00	1.014711e+00	1.013589e+00	1.011097e+00	1.007530e+00	1.003641e+00	9.999813e-01	9.967878e-01	9.941266e-01	9.920218e-01	9.904770e-01	9.894334e-01	9.887665e-01	9.883188e-01	9.879266e-01	9.874646e-01	9.870430e-01	9.869028e-01	9.869272e-01	9.869132e-01	9.871172e-01	9.875707e-01	9.880196e-01	9.883884e-01	9.888113e-01	9.894505e-01	9.904647e-01	9.919847e-01	9.940818e-01	9.967824e-01	1.000127e+00	1.004178e+00	1.008927e+00	1.014106e+00	1.019154e+00	1.023561e+00	1.027116e+00	1.029390e+00	1.030753e+00	9.992374e-01	9.992491e-01	9.992354e-01	9.992391e-01	9.992363e-01	9.992346e-01	9.992332e-01	9.992327e-01	9.992323e-01	9.992307e-01	9.992288e-01	9.992274e-01	9.992260e-01	9.992246e-01	9.992219e-01	9.992179e-01	9.992153e-01	9.992104e-01	9.992035