# vtk DataFile Version 3.0
vtk output
ASCII
DATASET STRUCTURED_GRID
DIMENSIONS 101 101 1
POINTS 10201 double
0.000000e+00	0.000000e+00	0.0	1.000000e-02	0.000000e+00	0.0	2.000000e-02	0.000000e+00	0.0	3.000000e-02	0.000000e+00	0.0	4.000000e-02	0.000000e+00	0.0	5.000000e-02	0.000000e+00	0.0	6.000000e-02	0.000000e+00	0.0	7.000000e-02	0.000000e+00	0.0	8.000000e-02	0.000000e+00	0.0	9.000000e-02	0.000000e+00	0.0	1.000000e-01	0.000000e+00	0.0	1.100000e-01	0.000000e+00	0.0	1.200000e-01	0.000000e+00	0.0	1.300000e-01	0.000000e+00	0.0	1.400000e-01	0.000000e+00	0.0	1.500000e-01	0.000000e+00	0.0	1.600000e-01	0.000000e+00	0.0	1.700000e-01	0.000000e+00	0.0	1.800000e-01	0.000000e+00	0.0	1.900000e-01	0.000000e+00	0.0	2.000000e-01	0.000000e+00	0.0	2.100000e-01	0.000000e+00	0.0	2.200000e-01	0.000000e+00	0.0	2.300000e-01	0.000000e+00	0.0	2.400000e-01	0.000000e+00	0.0	2.500000e-01	0.000000e+00	0.0	2.600000e-01	0.000000e+00	0.0	2.700000e-01	0.000000e+00	0.0	2.800000e-01	0.000000e+00	0.0	2.900000e-01	0.000000e+00	0.0	3.000000e-01	0.000000e+00	0.0	3.100000e-01	0.000000e+00	0.0	3.200000e-01	0.000000e+00	0.0	3.300000e-01	0.000000e+00	0.0	3.400000e-01	0.000000e+00	0.0	3.500000e-01	0.000000e+00	0.0	3.600000e-01	0.000000e+00	0.0	3.700000e-01	0.000000e+00	0.0	3.800000e-01	0.000000e+00	0.0	3.900000e-01	0.000000e+00	0.0	4.000000e-01	0.000000e+00	0.0	4.100000e-01	0.000000e+00	0.0	4.200000e-01	0.000000e+00	0.0	4.300000e-01	0.000000e+00	0.0	4.400000e-01	0.000000e+00	0.0	4.500000e-01	0.000000e+00	0.0	4.600000e-01	0.000000e+00	0.0	4.700000e-01	0.000000e+00	0.0	4.800000e-01	0.000000e+00	0.0	4.900000e-01	0.000000e+00	0.0	5.000000e-01	0.000000e+00	0.0	5.100000e-01	0.000000e+00	0.0	5.200000e-01	0.000000e+00	0.0	5.300000e-01	0.000000e+00	0.0	5.400000e-01	0.000000e+00	0.0	5.500000e-01	0.000000e+00	0.0	5.600000e-01	0.000000e+00	0.0	5.700000e-01	0.000000e+00	0.0	5.800000e-01	0.000000e+00	0.0	5.900000e-01	0.000000e+00	0.0	6.000000e-01	0.000000e+00	0.0	6.100000e-01	0.000000e+00	0.0	6.200000e-01	0.000000e+00	0.0	6.300000e-01	0.000000e+00	0.0	6.400000e-01	0.000000e+00	0.0	6.500000e-01	0.000000e+00	0.0	6.600000e-01	0.000000e+00	0.0	6.700000e-01	0.000000e+00	0.0	6.800000e-01	0.000000e+00	0.0	6.900000e-01	0.000000e+00	0.0	7.000000e-01	0.000000e+00	0.0	7.100000e-01	0.000000e+00	0.0	7.200000e-01	0.000000e+00	0.0	7.300000e-01	0.000000e+00	0.0	7.400000e-01	0.000000e+00	0.0	7.500000e-01	0.000000e+00	0.0	7.600000e-01	0.000000e+00	0.0	7.700000e-01	0.000000e+00	0.0	7.800000e-01	0.000000e+00	0.0	7.900000e-01	0.000000e+00	0.0	8.000000e-01	0.000000e+00	0.0	8.100000e-01	0.000000e+00	0.0	8.200000e-01	0.000000e+00	0.0	8.300000e-01	0.000000e+00	0.0	8.400000e-01	0.000000e+00	0.0	8.500000e-01	0.000000e+00	0.0	8.600000e-01	0.000000e+00	0.0	8.700000e-01	0.000000e+00	0.0	8.800000e-01	0.000000e+00	0.0	8.900000e-01	0.000000e+00	0.0	9.000000e-01	0.000000e+00	0.0	9.100000e-01	0.000000e+00	0.0	9.200000e-01	0.000000e+00	0.0	9.300000e-01	0.000000e+00	0.0	9.400000e-01	0.000000e+00	0.0	9.500000e-01	0.000000e+00	0.0	9.600000e-01	0.000000e+00	0.0	9.700000e-01	0.000000e+00	0.0	9.800000e-01	0.000000e+00	0.0	9.900000e-01	0.000000e+00	0.0	1.000000e+00	0.000000e+00	0.0	0.000000e+00	1.000000e-02	0.0	1.000000e-02	1.000000e-02	0.0	2.000000e-02	1.000000e-02	0.0	3.000000e-02	1.000000e-02	0.0	4.000000e-02	1.000000e-02	0.0	5.000000e-02	1.000000e-02	0.0	6.000000e-02	1.000000e-02	0.0	7.000000e-02	1.000000e-02	0.0	8.000000e-02	1.000000e-02	0.0	9.000000e-02	1.000000e-02	0.0	1.000000e-01	1.000000e-02	0.0	1.100000e-01	1.000000e-02	0.0	1.200000e-01	1.000000e-02	0.0	1.300000e-01	1.000000e-02	0.0	1.400000e-01	1.000000e-02	0.0	1.500000e-01	1.000000e-02	0.0	1.600000e-01	1.000000e-02	0.0	1.700000e-01	1.000000e-02	0.0	1.800000e-01	1.000000e-02	0.0	1.900000e-01	1.000000e-02	0.0	2.000000e-01	1.000000e-02	0.0	2.100000e-01	1.000000e-02	0.0	2.200000e-01	1.000000e-02	0.0	2.300000e-01	1.000000e-02	0.0	2.400000e-01	1.000000e-02	0.0	2.500000e-01	1.000000e-02	0.0	2.600000e-01	1.000000e-02	0.0	2.700000e-01	1.000000e-02	0.0	2.800000e-01	1.000000e-02	0.0	2.900000e-01	1.000000e-02	0.0	3.000000e-01	1.000000e-02	0.0	3.100000e-01	1.000000e-02	0.0	3.200000e-01	1.000000e-02	0.0	3.300000e-01	1.000000e-02	0.0	3.400000e-01	1.000000e-02	0.0	3.500000e-01	1.000000e-02	0.0	3.600000e-01	1.000000e-02	0.0	3.700000e-01	1.000000e-02	0.0	3.800000e-01	1.000000e-02	0.0	3.900000e-01	1.000000e-02	0.0	4.000000e-01	1.000000e-02	0.0	4.100000e-01	1.000000e-02	0.0	4.200000e-01	1.000000e-02	0.0	4.300000e-01	1.000000e-02	0.0	4.400000e-01	1.000000e-02	0.0	4.500000e-01	1.000000e-02	0.0	4.600000e-01	1.000000e-02	0.0	4.700000e-01	1.000000e-02	0.0	4.800000e-01	1.000000e-02	0.0	4.900000e-01	1.000000e-02	0.0	5.000000e-01	1.000000e-02	0.0	5.100000e-01	1.000000e-02	0.0	5.200000e-01	1.000000e-02	0.0	5.300000e-01	1.000000e-02	0.0	5.400000e-01	1.000000e-02	0.0	5.500000e-01	1.000000e-02	0.0	5.600000e-01	1.000000e-02	0.0	5.700000e-01	1.000000e-02	0.0	5.800000e-01	1.000000e-02	0.0	5.900000e-01	1.000000e-02	0.0	6.000000e-01	1.000000e-02	0.0	6.100000e-01	1.000000e-02	0.0	6.200000e-01	1.000000e-02	0.0	6.300000e-01	1.000000e-02	0.0	6.400000e-01	1.000000e-02	0.0	6.500000e-01	1.000000e-02	0.0	6.600000e-01	1.000000e-02	0.0	6.700000e-01	1.000000e-02	0.0	6.800000e-01	1.000000e-02	0.0	6.900000e-01	1.000000e-02	0.0	7.000000e-01	1.000000e-02	0.0	7.100000e-01	1.000000e-02	0.0	7.200000e-01	1.000000e-02	0.0	7.300000e-01	1.000000e-02	0.0	7.400000e-01	1.000000e-02	0.0	7.500000e-01	1.000000e-02	0.0	7.600000e-01	1.000000e-02	0.0	7.700000e-01	1.000000e-02	0.0	7.800000e-01	1.000000e-02	0.0	7.900000e-01	1.000000e-02	0.0	8.000000e-01	1.000000e-02	0.0	8.100000e-01	1.000000e-02	0.0	8.200000e-01	1.000000e-02	0.0	8.300000e-01	1.000000e-02	0.0	8.400000e-01	1.000000e-02	0.0	8.500000e-01	1.000000e-02	0.0	8.600000e-01	1.000000e-02	0.0	8.700000e-01	1.000000e-02	0.0	8.800000e-01	1.000000e-02	0.0	8.900000e-01	1.000000e-02	0.0	9.000000e-01	1.000000e-02	0.0	9.100000e-01	1.000000e-02	0.0	9.200000e-01	1.000000e-02	0.0	9.300000e-01	1.000000e-02	0.0	9.400000e-01	1.000000e-02	0.0	9.500000e-01	1.000000e-02	0.0	9.600000e-01	1.000000e-02	0.0	9.700000e-01	1.000000e-02	0.0	9.800000e-01	1.000000e-02	0.0	9.900000e-01	1.000000e-02	0.0	1.000000e+00	1.000000e-02	0.0	0.000000e+00	2.000000e-02	0.0	1.000000e-02	2.000000e-02	0.0	2.000000e-02	2.000000e-02	0.0	3.000000e-02	2.000000e-02	0.0	4.000000e-02	2.000000e-02	0.0	5.000000e-02	2.000000e-02	0.0	6.000000e-02	2.000000e-02	0.0	7.000000e-02	2.000000e-02	0.0	8.000000e-02	2.000000e-02	0.0	9.000000e-02	2.000000e-02	0.0	1.000000e-01	2.000000e-02	0.0	1.100000e-01	2.000000e-02	0.0	1.200000e-01	2.000000e-02	0.0	1.300000e-01	2.000000e-02	0.0	1.400000e-01	2.000000e-02	0.0	1.500000e-01	2.000000e-02	0.0	1.600000e-01	2.000000e-02	0.0	1.700000e-01	2.000000e-02	0.0	1.800000e-01	2.000000e-02	0.0	1.900000e-01	2.000000e-02	0.0	2.000000e-01	2.000000e-02	0.0	2.100000e-01	2.000000e-02	0.0	2.200000e-01	2.000000e-02	0.0	2.300000e-01	2.000000e-02	0.0	2.400000e-01	2.000000e-02	0.0	2.500000e-01	2.000000e-02	0.0	2.600000e-01	2.000000e-02	0.0	2.700000e-01	2.000000e-02	0.0	2.800000e-01	2.000000e-02	0.0	2.900000e-01	2.000000e-02	0.0	3.000000e-01	2.000000e-02	0.0	3.100000e-01	2.000000e-02	0.0	3.200000e-01	2.000000e-02	0.0	3.300000e-01	2.000000e-02	0.0	3.400000e-01	2.000000e-02	0.0	3.500000e-01	2.000000e-02	0.0	3.600000e-01	2.000000e-02	0.0	3.700000e-01	2.000000e-02	0.0	3.800000e-01	2.000000e-02	0.0	3.900000e-01	2.000000e-02	0.0	4.000000e-01	2.000000e-02	0.0	4.100000e-01	2.000000e-02	0.0	4.200000e-01	2.000000e-02	0.0	4.300000e-01	2.000000e-02	0.0	4.400000e-01	2.000000e-02	0.0	4.500000e-01	2.000000e-02	0.0	4.600000e-01	2.000000e-02	0.0	4.700000e-01	2.000000e-02	0.0	4.800000e-01	2.000000e-02	0.0	4.900000e-01	2.000000e-02	0.0	5.000000e-01	2.000000e-02	0.0	5.100000e-01	2.000000e-02	0.0	5.200000e-01	2.000000e-02	0.0	5.300000e-01	2.000000e-02	0.0	5.400000e-01	2.000000e-02	0.0	5.500000e-01	2.000000e-02	0.0	5.600000e-01	2.000000e-02	0.0	5.700000e-01	2.000000e-02	0.0	5.800000e-01	2.000000e-02	0.0	5.900000e-01	2.000000e-02	0.0	6.000000e-01	2.000000e-02	0.0	6.100000e-01	2.000000e-02	0.0	6.200000e-01	2.000000e-02	0.0	6.300000e-01	2.000000e-02	0.0	6.400000e-01	2.000000e-02	0.0	6.500000e-01	2.000000e-02	0.0	6.600000e-01	2.000000e-02	0.0	6.700000e-01	2.000000e-02	0.0	6.800000e-01	2.000000e-02	0.0	6.900000e-01	2.000000e-02	0.0	7.000000e-01	2.000000e-02	0.0	7.100000e-01	2.000000e-02	0.0	7.200000e-01	2.000000e-02	0.0	7.300000e-01	2.000000e-02	0.0	7.400000e-01	2.000000e-02	0.0	7.500000e-01	2.000000e-02	0.0	7.600000e-01	2.000000e-02	0.0	7.700000e-01	2.000000e-02	0.0	7.800000e-01	2.000000e-02	0.0	7.900000e-01	2.000000e-02	0.0	8.000000e-01	2.000000e-02	0.0	8.100000e-01	2.000000e-02	0.0	8.200000e-01	2.000000e-02	0.0	8.300000e-01	2.000000e-02	0.0	8.400000e-01	2.000000e-02	0.0	8.500000e-01	2.000000e-02	0.0	8.600000e-01	2.000000e-02	0.0	8.700000e-01	2.000000e-02	0.0	8.800000e-01	2.000000e-02	0.0	8.900000e-01	2.000000e-02	0.0	9.000000e-01	2.000000e-02	0.0	9.100000e-01	2.000000e-02	0.0	9.200000e-01	2.000000e-02	0.0	9.300000e-01	2.000000e-02	0.0	9.400000e-01	2.000000e-02	0.0	9.500000e-01	2.000000e-02	0.0	9.600000e-01	2.000000e-02	0.0	9.700000e-01	2.000000e-02	0.0	9.800000e-01	2.000000e-02	0.0	9.900000e-01	2.000000e-02	0.0	1.000000e+00	2.000000e-02	0.0	0.000000e+00	3.000000e-02	0.0	1.000000e-02	3.000000e-02	0.0	2.000000e-02	3.000000e-02	0.0	3.000000e-02	3.000000e-02	0.0	4.000000e-02	3.000000e-02	0.0	5.000000e-02	3.000000e-02	0.0	6.000000e-02	3.000000e-02	0.0	7.000000e-02	3.000000e-02	0.0	8.000000e-02	3.000000e-02	0.0	9.000000e-02	3.000000e-02	0.0	1.000000e-01	3.000000e-02	0.0	1.100000e-01	3.000000e-02	0.0	1.200000e-01	3.000000e-02	0.0	1.300000e-01	3.000000e-02	0.0	1.400000e-01	3.000000e-02	0.0	1.500000e-01	3.000000e-02	0.0	1.600000e-01	3.000000e-02	0.0	1.700000e-01	3.000000e-02	0.0	1.800000e-01	3.000000e-02	0.0	1.900000e-01	3.000000e-02	0.0	2.000000e-01	3.000000e-02	0.0	2.100000e-01	3.000000e-02	0.0	2.200000e-01	3.000000e-02	0.0	2.300000e-01	3.000000e-02	0.0	2.400000e-01	3.000000e-02	0.0	2.500000e-01	3.000000e-02	0.0	2.600000e-01	3.000000
[...]
POINT_DATA 10201

SCALARS Height double 1
LOOKUP_TABLE default
9.983298e-01	9.983510e-01	9.983514e-01	9.983392e-01	9.983256e-01	9.983097e-01	9.982913e-01	9.982716e-01	9.982571e-01	9.982485e-01	9.982428e-01	9.982372e-01	9.982286e-01	9.982169e-01	9.982029e-01	9.981873e-01	9.981708e-01	9.981539e-01	9.981345e-01	9.981133e-01	9.980871e-01	9.980497e-01	9.980068e-01	9.979598e-01	9.979103e-01	9.978573e-01	9.978018e-01	9.977415e-01	9.976767e-01	9.976070e-01	9.975319e-01	9.974504e-01	9.973613e-01	9.972635e-01	9.971553e-01	9.970360e-01	9.969026e-01	9.967537e-01	9.965856e-01	9.963942e-01	9.961733e-01	9.959104e-01	9.955817e-01	9.951436e-01	9.945296e-01	9.936513e-01	9.924286e-01	9.908623e-01	9.891169e-01	9.875212e-01	9.863887e-01	9.857938e-01	9.856255e-01	9.858157e-01	9.869115e-01	9.894184e-01	9.933613e-01	9.984629e-01	1.004293e+00	1.010392e+00	1.016192e+00	1.020963e+00	1.024099e+00	1.025581e+00	1.025794e+00	1.024559e+00	1.020099e+00	1.012642e+00	1.005332e+00	1.000820e+00	9.988597e-01	9.981823e-01	9.979745e-01	9.979074e-01	9.978718e-01	9.978268e-01	9.977496e-01	9.976269e-01	9.974606e-01	9.972609e-01	9.970354e-01	9.967805e-01	9.964756e-01	9.960779e-01	9.955199e-01	9.947110e-01	9.935644e-01	9.920741e-01	9.903920e-01	9.889278e-01	9.883483e-01	9.895930e-01	9.937442e-01	1.000971e+00	1.009188e+00	1.015905e+00	1.020923e+00	1.025712e+00	1.029969e+00	1.032978e+00	1.033299e+00	9.983437e-01	9.983540e-01	9.983579e-01	9.983443e-01	9.983264e-01	9.983084e-01	9.982899e-01	9.982711e-01	9.982578e-01	9.982484e-01	9.982412e-01	9.982336e-01	9.982237e-01	9.982110e-01	9.981955e-01	9.981781e-01	9.981594e-01	9.981401e-01	9.981187e-01	9.980937e-01	9.980660e-01	9.980301e-01	9.979901e-01	9.979465e-01	9.978981e-01	9.978487e-01	9.977945e-01	9.977354e-01	9.976713e-01	9.976020e-01	9.975271e-01	9.974458e-01	9.973571e-01	9.972595e-01	9.971512e-01	9.970310e-01	9.968970e-01	9.967468e-01	9.965764e-01	9.963830e-01	9.961598e-01	9.958943e-01	9.955622e-01	9.951201e-01	9.945010e-01	9.936182e-01	9.923926e-01	9.908220e-01	9.890623e-01	9.874261e-01	9.862426e-01	9.856942e-01	9.856044e-01	9.858162e-01	9.868902e-01	9.893652e-01	9.933256e-01	9.984580e-01	1.004327e+00	1.010452e+00	1.016286e+00	1.021189e+00	1.024480e+00	1.025727e+00	1.025773e+00	1.024600e+00	1.020430e+00	1.012971e+00	1.005247e+00	1.000500e+00	9.986312e-01	9.980823e-01	9.979369e-01	9.978901e-01	9.978593e-01	9.978162e-01	9.977402e-01	9.976182e-01	9.974511e-01	9.972495e-01	9.970217e-01	9.967643e-01	9.964568e-01	9.960564e-01	9.954952e-01	9.946822e-01	9.935293e-01	9.920301e-01	9.903304e-01	9.887576e-01	9.879636e-01	9.891651e-01	9.936517e-01	1.001278e+00	1.009523e+00	1.015930e+00	1.020860e+00	1.025846e+00	1.030300e+00	1.033201e+00	1.033756e+00	9.983432e-01	9.983542e-01	9.983667e-01	9.983508e-01	9.983328e-01	9.983158e-01	9.982983e-01	9.982791e-01	9.982647e-01	9.982538e-01	9.982454e-01	9.982369e-01	9.982261e-01	9.982118e-01	9.981951e-01	9.981771e-01	9.981587e-01	9.981404e-01	9.981184e-01	9.980944e-01	9.980672e-01	9.980310e-01	9.979881e-01	9.979441e-01	9.978964e-01	9.978448e-01	9.977914e-01	9.977324e-01	9.976688e-01	9.976000e-01	9.975258e-01	9.974454e-01	9.973577e-01	9.972613e-01	9.971542e-01	9.970343e-01	9.968996e-01	9.967483e-01	9.965775e-01	9.963833e-01	9.961591e-01	9.958911e-01	9.955528e-01	9.951009e-01	9.944682e-01	9.935747e-01	9.923554e-01	9.908168e-01	9.890964e-01	9.874675e-01	9.863066e-01	9.858509e-01	9.858006e-01	9.860467e-01	9.871310e-01	9.895658e-01	9.934772e-01	9.985480e-01	1.004329e+00	1.010349e+00	1.016144e+00	1.021138e+00	1.024360e+00	1.025349e+00	1.025358e+00	1.024232e+00	1.020351e+00	1.013214e+00	1.005480e+00	1.000536e+00	9.985978e-01	9.980594e-01	9.979257e-01	9.978822e-01	9.978520e-01	9.978097e-01	9.977359e-01	9.976171e-01	9.974525e-01	9.972514e-01	9.970218e-01	9.967598e-01	9.964445e-01	9.960343e-01	9.954601e-01	9.946342e-01	9.934807e-01	9.920032e-01	9.903421e-01	9.887658e-01	9.879428e-01	9.893203e-01	9.940524e-01	1.001766e+00	1.009717e+00	1.015796e+00	1.020600e+00	1.025564e+00	1.030158e+00	1.033040e+00	1.033576e+00	9.983310e-01	9.983417e-01	9.983571e-01	9.983409e-01	9.983247e-01	9.983101e-01	9.982948e-01	9.982774e-01	9.982631e-01	9.982524e-01	9.982436e-01	9.982350e-01	9.982241e-01	9.982105e-01	9.981943e-01	9.981759e-01	9.981570e-01	9.981382e-01	9.981152e-01	9.980917e-01	9.980650e-01	9.980269e-01	9.979843e-01	9.979403e-01	9.978922e-01	9.978411e-01	9.977865e-01	9.977271e-01	9.976631e-01	9.975940e-01	9.975195e-01	9.974387e-01	9.973508e-01	9.972540e-01	9.971463e-01	9.970251e-01	9.968880e-01	9.967335e-01	9.965595e-01	9.963614e-01	9.961326e-01	9.958574e-01	9.955076e-01	9.950371e-01	9.943800e-01	9.934598e-01	9.922268e-01	9.906975e-01	9.889882e-01	9.873775e-01	9.863309e-01	9.860071e-01	9.859807e-01	9.862742e-01	9.874238e-01	9.899030e-01	9.937909e-01	9.988143e-01	1.004497e+00	1.010433e+00	1.016255e+00	1.021261e+00	1.024202e+00	1.024980e+00	1.024942e+00	1.023823e+00	1.020095e+00	1.013227e+00	1.005625e+00	1.000651e+00	9.986382e-01	9.980635e-01	9.979171e-01	9.978681e-01	9.978349e-01	9.977911e-01	9.977177e-01	9.976004e-01	9.974372e-01	9.972359e-01	9.970034e-01	9.967344e-01	9.964074e-01	9.959797e-01	9.953822e-01	9.945295e-01	9.933577e-01	9.918839e-01	9.902318e-01	9.886639e-01	9.879584e-01	9.895657e-01	9.943798e-01	1.002016e+00	1.009770e+00	1.015737e+00	1.020530e+00	1.025475e+00	1.030205e+00	1.033261e+00	1.033834e+00	9.983259e-01	9.983322e-01	9.983478e-01	9.983319e-01	9.983181e-01	9.983060e-01	9.982926e-01	9.982767e-01	9.982607e-01	9.982493e-01	9.982397e-01	9.982303e-01	9.982186e-01	9.982047e-01	9.981884e-01	9.981701e-01	9.981507e-01	9.981313e-01	9.981073e-01	9.980851e-01	9.980570e-01	9.980176e-01	9.979765e-01	9.979324e-01	9.978839e-01	9.978328e-01	9.977777e-01	9.977179e-01	9.976535e-01	9.975844e-01	9.975098e-01	9.974287e-01	9.973402e-01	9.972427e-01	9.971339e-01	9.970113e-01	9.968721e-01	9.967147e-01	9.965366e-01	9.963342e-01	9.960988e-01	9.958133e-01	9.954472e-01	9.949513e-01	9.942620e-01	9.933096e-01	9.920562e-01	9.905224e-01	9.888178e-01	9.872990e-01	9.864489e-01	9.862283e-01	9.862259e-01	9.865840e-01	9.878211e-01	9.903593e-01	9.942406e-01	9.991711e-01	1.004733e+00	1.010616e+00	1.016463e+00	1.021307e+00	1.023876e+00	1.024487e+00	1.024425e+00	1.023300e+00	1.019686e+00	1.013095e+00	1.005784e+00	1.000854e+00	9.987481e-01	9.980955e-01	9.979154e-01	9.978536e-01	9.978145e-01	9.977680e-01	9.976944e-01	9.975788e-01	9.974175e-01	9.972160e-01	9.969793e-01	9.967014e-01	9.963586e-01	9.959043e-01	9.952759e-01	9.943913e-01	9.931952e-01	9.917130e-01	9.900611e-01	9.885636e-01	9.881465e-01	9.899415e-01	9.947517e-01	1.002197e+00	1.009753e+00	1.015678e+00	1.020484e+00	1.025379e+00	1.030182e+00	1.033529e+00	1.034260e+00	9.983188e-01	9.983218e-01	9.983351e-01	9.983212e-01	9.983101e-01	9.983005e-01	9.982892e-01	9.982745e-01	9.982598e-01	9.982471e-01	9.982361e-01	9.982253e-01	9.982130e-01	9.981987e-01	9.981822e-01	9.981634e-01	9.981432e-01	9.981229e-01	9.980991e-01	9.980752e-01	9.980469e-01	9.980084e-01	9.979677e-01	9.979233e-01	9.978739e-01	9.978232e-01	9.977682e-01	9.977084e-01	9.976439e-01	9.975747e-01	9.974998e-01	9.974182e-01	9.973286e-01	9.972295e-01	9.971186e-01	9.969933e-01	9.968517e-01	9.966907e-01	9.965081e-01	9.962996e-01	9.960550e-01	9.957552e-01	9.953656e-01	9.948388e-01	9.941103e-01	9.931228e-01	9.918385e-01	9.902734e-01	9.885978e-01	9.872558e-01	9.866249e-01	9.864840e-01	9.865225e-01	9.869679e-01	9.883246e-01	9.909403e-01	9.948022e-01	9.996152e-01	1.005070e+00	1.010929e+00	1.016725e+00	1.021258e+00	1.023463e+00	1.023915e+00	1.023822e+00	1.022661e+00	1.019114e+00	1.012842e+00	1.005933e+00	1.001127e+00	9.989135e-01	9.981519e-01	9.979186e-01	9.978371e-01	9.977897e-01	9.977390e-01	9.976643e-01	9.975504e-01	9.973908e-01	9.971887e-01	9.969472e-01	9.966574e-01	9.962922e-01	9.958075e-01	9.951353e-01	9.942102e-01	9.929868e-01	9.914775e-01	9.898371e-01	9.885084e-01	9.884396e-01	9.904172e-01	9.951629e-01	1.002327e+00	1.009680e+00	1.015623e+00	1.020473e+00	1.025298e+00	1.030162e+00	1.033841e+00	1.034811e+00	9.983077e-01	9.983096e-01	9.983200e-01	9.983091e-01	9.983006e-01	9.982933e-01	9.982839e-01	9.982709e-01	9.982569e-01	9.982443e-01	9.982327e-01	9.982209e-01	9.982076e-01	9.981926e-01	9.981754e-01	9.981560e-01	9.981344e-01	9.981127e-01	9.980892e-01	9.980627e-01	9.980346e-01	9.979972e-01	9.979560e-01	9.979107e-01	9.978603e-01	9.978098e-01	9.977537e-01	9.976942e-01	9.976305e-01	9.975616e-01	9.974866e-01	9.974043e-01	9.973133e-01	9.972122e-01	9.970984e-01	9.969701e-01	9.968248e-01	9.966600e-01	9.964724e-01	9.962567e-01	9.960006e-01	9.956816e-01	9.952633e-01	9.946938e-01	9.939160e-01	9.928790e-01	9.915490e-01	9.899593e-01	9.883738e-01	9.872745e-01	9.868471e-01	9.867842e-01	9.868758e-01	9.874418e-01	9.889420e-01	9.916411e-01	9.954655e-01	1.000154e+00	1.005512e+00	1.011343e+00	1.016976e+00	1.021104e+00	1.022936e+00	1.023263e+00	1.023126e+00	1.021904e+00	1.018403e+00	1.012495e+00	1.006076e+00	1.001461e+00	9.991358e-01	9.982335e-01	9.979287e-01	9.978190e-01	9.977609e-01	9.977053e-01	9.976285e-01	9.975153e-01	9.973572e-01	9.971543e-01	9.969059e-01	9.965999e-01	9.962088e-01	9.956828e-01	9.949606e-01	9.939819e-01	9.927088e-01	9.911700e-01	9.895883e-01	9.885416e-01	9.888335e-01	9.910018e-01	9.956380e-01	1.002456e+00	1.009588e+00	1.015566e+00	1.020478e+00	1.025231e+00	1.030161e+00	1.034156e+00	1.035389e+00	9.982938e-01	9.982979e-01	9.983023e-01	9.982950e-01	9.982884e-01	9.982829e-01	9.982753e-01	9.982643e-01	9.982515e-01	9.982397e-01	9.982283e-01	9.982161e-01	9.982028e-01	9.981871e-01	9.981690e-01	9.981489e-01	9.981266e-01	9.981035e-01	9.980795e-01	9.980518e-01	9.980225e-01	9.979842e-01	9.979416e-01	9.978950e-01	9.978449e-01	9.977928e-01	9.977369e-01	9.976773e-01	9.976135e-01	9.975446e-01	9.974693e-01	9.973863e-01	9.972938e-01	9.971904e-01	9.970732e-01	9.969410e-01	9.967915e-01	9.966220e-01	9.964285e-01	9.962038e-01	9.959331e-01	9.955900e-01	9.951354e-01	9.945184e-01	9.936844e-01	9.925828e-01	9.911870e-01	9.895937e-01	9.881739e-01	9.873658e-01	9.871288e-01	9.871183e-01	9.872926e-01	9.880138e-01	9.896782e-01	9.924547e-01	9.962252e-01	1.000800e+00	1.006075e+00	1.011818e+00	1.017186e+00	1.020847e+00	1.022313e+00	1.022535e+00	1.022340e+00	1.021029e+00	1.017582e+00	1.012079e+00	1.006215e+00	1.001838e+00	9.994086e-01	9.983433e-01	9.979460e-01	9.977992e-01	9.977263e-01	9.976649e-01	9.975869e-01	9.974739e-01	9.973168e-01	9.971117e-01	9.968535e-01	9.965283e-01	9.961026e-01	9.955286e-01	9.947480e-01	9.937049e-01	9.923659e-01	9.908046e-01	9.893530e-01	9.886848e-01	9.893411e-01	9.916664e-01	9.961795e-01	1.002620e+00	1.009509e+00	1.015517e+00	1.020494e+00	1.025188e+00	1.030175e+00	1.034435e+00	1.035919e+00	9.982821e-01	9.982867e-01	9.982864e-01	9.982822e-01	9.982760e-01	9.982715e-01	9.982646e-01	9.982551e-01	9.982433e-01	9.982318e-01	9.982203e-01	9.982079e-01	9.981940e-01	9.981782e-01	9.981599e-01	9.981393e-01	9.981173e-01	9.980933e-01	9.980683e-01	9.980417e-01	9.980097e-01	9.979705e-01	9.979267e-01	9.978782e-01	9.978298e-01	9.977765e-01	9.977197e-01	9.976592e-01	9.975948e-01	9.975250e-01	9.974485e-01	9.973639e-01	9.972694e-01	9.971627e-01	9.970421e-01	9.969056e-01	9.967513e-01	9.965765e-01	9.963766e-01	9.961412e-01	9.958524e-01	9.954802e-01	9.949821e-01	9.943072e-01	9.934026e-01	9.922183e-01	9.907554e-01	9.892109e-01	9.880344e-01	9.875322e-01	9.874512e-01	9.874875e-01	9.877812e-01	9.886906e-01	9.905284e-01	9.933707e-01	9.970811e-01	1.001551e+00	1.006734e+00	1.012315e+00	1.017321e+00	1.020491e+00	1.021599e+00	1.021726e+00	1.021467e+00	1.020051e+00	1.016682e+00	1.011628e+00	1.006351e+00	1.002241e+00	9.997234e-01	9.984794e-01	9.979702e-01	9.977769e-01	9.976868e-01	9.976182e-01	9.975380e-01	9.974259e-01	9.972689e-01	9.970595e-01	9.967894e-01	9.964381e-01	9.959712e-01	9.953402e-01	9.944893e-01	9.933627e-01	9.919471e-01	9.904055e-01	9.891763e-01	9.889302e-01	9.899298e-01	9.923960e-01	9.967827e-01	1.002854e+00	1.009482e+00	1.015481e+00	1.020526e+00	1.025182e+00	1.030190e+00	1.034627e+00	1.036313e+00	9.982714e-01	9.982762e-01	9.982724e-01	9.982699e-01	9.982643e-01	9.982595e-01	9.982532e-01	9.982449e-01	9.982338e-01	9.982223e-01	9.982105e-01	9.981975e-01	9.981832e-01	9.981667e-01	9.981481e-01	9.981272e-01	9.981047e-01	9.980806e-01	9.980545e-01	9.980260e-01	9.979935e-01	9.979535e-01	9.979085e-01	9.978627e-01	9.978124e-01	9.977596e-01	9.977025e-01	9.976413e-01	9.975757e-01	9.975040e-01	9.974252e-01	9.973381e-01	9.972401e-01	9.971295e-01	9.970044e-01	9.968629e-01	9.967033e-01	9.965228e-01	9.963148e-01	9.960668e-01	9.957560e-01	9.953486e-01	9.947987e-01	9.940541e-01	9.930606e-01	9.917785e-01	9.902633e-01	9.888434e-01	9.880164e-01	9.877882e-01	9.877880e-01	9.879010e-01	9.883635e-01	9.894830e-01	9.914874e-01	9.943812e-01	9.980365e-01	1.002404e+00	1.007458e+00	1.012795e+00	1.017348e+00	1.019988e+00	1.020789e+00	1.020847e+00	1.020500e+00	1.018986e+00	1.015733e+00	1.011169e+00	1.006488e+00	1.002662e+00	1.000071e+00	9.986398e-01	9.980020e-01	9.977528e-01	9.976419e-01	9.975655e-01	9.974827e-01	9.973702e-01	9.972121e-01	9.969965e-01	9.967090e-01	9.963261e-01	9.958098e-01	9.951108e-01	9.941730e-01	9.929456e-01	9.914592e-01	9.900027e-01	9.891230e-01	9.893039e-01	9.905666e-01	9.931837e-01	9.974690e-01	1.003193e+00	1.009532e+00	1.015473e+00	1.020572e+00	1.025221e+00	1.030175e+00	1.034678e+00	1.036491e+00	9.982600e-01	9.982646e-01	9.982590e-01	9.982576e-01	9.982520e-01	9.982467e-01	9.982407e-01	9.982333e-01	9.982227e-01	9.982110e-01	9.981986e-01	9.981853e-01	9.981702e-01	9.981538e-01	9.981350e-01	9.981139e-01	9.980907e-01	9.980657e-01	9.980380e-01	9.980074e-01	9.979731e-01	9.979326e-01	9.978894e-01	9.978424e-01	9.977929e-01	9.977403e-01	9.976834e-01	9.976218e-01	9.975545e-01	9.974808e-01	9.973988e-01	9.973079e-01	9.972061e-01	9.970908e-01	9.969606e-01	9.968134e-01	9.966479e-01	9.964606e-01	9.962430e-01	9.959790e-01	9.956409e-01	9.951899e-01	9.945766e-01	9.937463e-01	9.926432e-01	9.912511e-01	9.897336e-01	9.885737e-01	9.881336e-01	9.880904e-01	9.881385e-01	9.883857e-01	9.890566e-01	9.903993e-01	9.925522e-01	9.954831e-01	9.990913e-01	1.003347e+00	1.008209e+00	1.013210e+00	1.017226e+00	1.019350e+00	1.019888e+00	1.019890e+00	1.019443e+00	1.017852e+00	1.014771e+00	1.010730e+00	1.006633e+00	1.003091e+00	1.000441e+00	9.988189e-01	9.980404e-01	9.977275e-01	9.975929e-01	9.975076e-01	9.974215e-01	9.973076e-01	9.971460e-01	9.969200e-01	9.966103e-01	9.961877e-01	9.956117e-01	9.948304e-01	9.937845e-01	9.924400e-01	9.909131e-01	9.896545e-01	9.892352e-01	9.897597e-01	9.912380e-01	9.940418e-01	9.982662e-01	1.003672e+00	1.009690e+00	1.015509e+00	1.020638e+00	1.025283e+00	1.030110e+00	1.034535e+00	1.036389e+00	9.982484e-01	9.982518e-01	9.982448e-01	9.982446e-01	9.982387e-01	9.982330e-01	9.982270e-01	9.982197e-01	9.982093e-01	9.981971e-01	9.981844e-01	9.981709e-01	9.981561e-01	9.981394e-01	9.981214e-01	9.981003e-01	9.980764e-01	9.980503e-01	9.980214e-01	9.979893e-01	9.979534e-01	9.979126e-01	9.978683e-01	9.978205e-01	9.977710e-01	9.977181e-01	9.976608e-01	9.975982e-01	9.975292e-01	9.974526e-01	9.973673e-01	9.972724e-01	9.971660e-01	9.970461e-01	9.969107e-01	9.967579e-01	9.965859e-01	9.963904e-01	9.961611e-01	9.958752e-01	9.955030e-01	9.949976e-01	9.943056e-01	9.933683e-01	9.921322e-01	9.906293e-01	9.892303e-01	9.885017e-01	9.883538e-01	9.883837e-01	9.885324e-01	9.889646e-01	9.898756e-01	9.914405e-01	9.937200e-01	9.966725e-01	1.000236e+00	1.004366e+00	1.008953e+00	1.013503e+00	1.016955e+00	1.018572e+00	1.018906e+00	1.018850e+00	1.018306e+00	1.016674e+00	1.013830e+00	1.010333e+00	1.006788e+00	1.003516e+00	1.000817e+00	9.990080e-01	9.980828e-01	9.977009e-01	9.975408e-01	9.974455e-01	9.973548e-01	9.972378e-01	9.970704e-01	9.968298e-01	9.964904e-01	9.960181e-01	9.953683e-01	9.944851e-01	9.933065e-01	9.918335e-01	9.903617e-01	9.894823e-01	9.894776e-01	9.902202e-01	9.919581e-01	9.949930e-01	9.992022e-01	1.004321e+00	1.009983e+00	1.015604e+00	1.020718e+00	1.025345e+00	1.029965e+00	1.034144e+00	1.035954e+00	9.982351e-01	9.982369e-01	9.982286e-01	9.982302e-01	9.982241e-01	9.982184e-01	9.982121e-01	9.982051e-01	9.981939e-01	9.981812e-01	9.981676e-01	9.981543e-01	9.981400e-01	9.981242e-01	9.981063e-01	9.980856e-01	9.980608e-01	9.980328e-01	9.980014e-01	9.979670e-01	9.979287e-01	9.978881e-01	9.978451e-01	9.977986e-01	9.977484e-01	9.976943e-01	9.976354e-01	9.975706e-01	9.974985e-01	9.974183e-01	9.973294e-01	9.972298e-01	9.971183e-01	9.969935e-01	9.968532e-01	9.966952e-01	9.965169e-01	9.963122e-01	9.960663e-01	9.957552e-01	9.953373e-01	9.947629e-01	9.939737e-01	9.928991e-01	9.914975e-01	9.899596e-01	9.888972e-01	9.885984e-01	9.885962e-01	9.886938e-01	9.890015e-01	9.896615e-01	9.908290e-01	9.926034e-01	9.949874e-01	9.979442e-01	1.001449e+00	1.005429e+00	1.009650e+00	1.013621e+00	1.016471e+00	1.017665e+00	1.017845e+00	1.017736e+00	1.017104e+00	1.015484e+00	1.012946e+00	1.009996e+00	1.006957e+00	1.003930e+00	1.001187e+00	9.991956e-01	9.981226e-01	9.976703e-01	9.974834e-01	9.973775e-01	9.972809e-01	9.971585e-01	9.969821e-01	9.967222e-01	9.963451e-01	9.958111e-01	9.950702e-01	9.940556e-01	9.927085e-01	9.911428e-01	9.899231e-01	9.895240e-01	9.897816e-01	9.906922e-01	9.927469e-01	9.960602e-01	1.000298e+00	1.005158e+00	1.010435e+00	1.015775e+00	1.020801e+00	1.025384e+00	1.029717e+00	1.033491e+00	1.035088e+00	9.982211e-01	9.982197e-01	9.982114e-01	9.982142e-01	9.982085e-01	9.982033e-01	9.981966e-01	9.981887e-01	9.981769e-01	9.981631e-01	9.981492e-01	9.981354e-01	9.981220e-01	9.981067e-01	9.980890e-01	9.980676e-01	9.980418e-01	9.980126e-01	9.979804e-01	9.979459e-01	9.979075e-01	9.978670e-01	9.978220e-01	9.977746e-01	9.977233e-01	9.976676e-01	9.976065e-01	9.975386e-01	9.974637e-01	9.973809e-01	9.972864e-01	9.971814e-01	9.970639e-01	9.969331e-01	9.967872e-01	9.966238e-01	9.964387e-01	9.962223e-01	9.959560e-01	9.956080e-01	9.951330e-01	9.944734e-01	9.935581e-01	9.923027e-01	9.907377e-01	9.893817e-01	9.888353e-01	9.887729e-01	9.888329e-01	9.890615e-01	9.895772e-01	9.904971e-01	9.919216e-01	9.938828e-01	9.963487e-01	9.992920e-01	1.002706e+00	1.006481e+00	1.010257e+00	1.013522e+00	1.015778e+00	1.016636e+00	1.016708e+00	1.016550e+00	1.015858e+00	1.014323e+00	1.012155e+00	1.009735e+00	1.007145e+00	1.004328e+00	1.001537e+00	9.993729e-01	9.981564e-01	9.976341e-01	9.974197e-01	9.973019e-01	9.971983e-01	9.970684e-01	9.968784e-01	9.965915e-01	9.961663e-01	9.955555e-01	9.946977e-01	9.935078e-01	9.919697e-01	9.904825e-01	9.897395e-01	9.896892e-01	9.900664e-01	9.912096e-01	9.936296e-01	9.972637e-01	1.001567e+00	1.006188e+00	1.011061e+00	1.016056e+00	1.020895e+00	1.025344e+00	1.029333e+00	1.032482e+00	1.033748e+00	9.982054e-01	9.982012e-01	9.981941e-01	9.981968e-01	9.981920e-01	9.981869e-01	9.981798e-01	9.981711e-01	9.981585e-01	9.981436e-01	9.981289e-01	9.981155e-01	9.981022e-01	9.980870e-01	9.980693e-01	9.980471e-01	9.980210e-01	9.979907e-01	9.979569e-01	9.979195e-01	9.978794e-01	9.978387e-01	9.977953e-01	9.977477e-01	9.976954e-01	9.976377e-01	9.975735e-01	9.975034e-01	9.974247e-01	9.973372e-01	9.972389e-01	9.971283e-01	9.970045e-01	9.968666e-01	9.967142e-01	9.965440e-01	9.963501e-01	9.961176e-01	9.958226e-01	9.954267e-01	9.948783e-01	9.941082e-01	9.930160e-01	9.915348e-01	9.899710e-01	9.890841e-01	9.889221e-01	9.889510e-01	9.891104e-01	9.895243e-01	9.902900e-01	9.914882e-01	9.931560e-01	9.952734e-01	9.977951e-01	1.000700e+00	1.003976e+00	1.007459e+00	1.010701e+00	1.013232e+00	1.014847e+00	1.015499e+00	1.015504e+00	1.015304e+00	1.014600e+00	1.013239e+00	1.011479e+00	1.009556e+00	1.007348e+00	1.004701e+00	1.001857e+00	9.995304e-01	9.981809e-01	9.975922e-01	9.973502e-01	9.972193e-01	9.971063e-01	9.969649e-01	9.967546e-01	9.964307e-01	9.959435e-01	9.952334e-01	9.942120e-01	9.927898e-01	9.911534e-01	9.900463e-01	9.897762e-01	9.898791e-01	9.903780e-01	9.918027e-01	9.946289e-01	9.986163e-01	1.003009e+00	1.007413e+00	1.011877e+00	1.016467e+00	1.021016e+00	1.025156e+00	1.028705e+00	1.031140e+00	1.031990e+00	9.981870e-01	9.981807e-01	9.981779e-01	9.981786e-01	9.981740e-01	9.981686e-01	9.981613e-01	9.981526e-01	9.981386e-01	9.981227e-01	9.981069e-01	9.980931e-01	9.980800e-01	9.980642e-01	9.980458e-01	9.980233e-01	9.979966e-01	9.979655e-01	9.979300