# vtk DataFile Version 3.0
vtk output
ASCII
DATASET STRUCTURED_GRID
DIMENSIONS 101 101 1
POINTS 10201 double
0.000000e+00	0.000000e+00	0.0	1.000000e-02	0.000000e+00	0.0	2.000000e-02	0.000000e+00	0.0	3.000000e-02	0.000000e+00	0.0	4.000000e-02	0.000000e+00	0.0	5.000000e-02	0.000000e+00	0.0	6.000000e-02	0.000000e+00	0.0	7.000000e-02	0.000000e+00	0.0	8.000000e-02	0.000000e+00	0.0	9.000000e-02	0.000000e+00	0.0	1.000000e-01	0.000000e+00	0.0	1.100000e-01	0.000000e+00	0.0	1.200000e-01	0.000000e+00	0.0	1.300000e-01	0.000000e+00	0.0	1.400000e-01	0.000000e+00	0.0	1.500000e-01	0.000000e+00	0.0	1.600000e-01	0.000000e+00	0.0	1.700000e-01	0.000000e+00	0.0	1.800000e-01	0.000000e+00	0.0	1.900000e-01	0.000000e+00	0.0	2.000000e-01	0.000000e+00	0.0	2.100000e-01	0.000000e+00	0.0	2.200000e-01	0.000000e+00	0.0	2.300000e-01	0.000000e+00	0.0	2.400000e-01	0.000000e+00	0.0	2.500000e-01	0.000000e+00	0.0	2.600000e-01	0.000000e+00	0.0	2.700000e-01	0.000000e+00	0.0	2.800000e-01	0.000000e+00	0.0	2.900000e-01	0.000000e+00	0.0	3.000000e-01	0.000000e+00	0.0	3.100000e-01	0.000000e+00	0.0	3.200000e-01	0.000000e+00	0.0	3.300000e-01	0.000000e+00	0.0	3.400000e-01	0.000000e+00	0.0	3.500000e-01	0.000000e+00	0.0	3.600000e-01	0.000000e+00	0.0	3.700000e-01	0.000000e+00	0.0	3.800000e-01	0.000000e+00	0.0	3.900000e-01	0.000000e+00	0.0	4.000000e-01	0.000000e+00	0.0	4.100000e-01	0.000000e+00	0.0	4.200000e-01	0.000000e+00	0.0	4.300000e-01	0.000000e+00	0.0	4.400000e-01	0.000000e+00	0.0	4.500000e-01	0.000000e+00	0.0	4.600000e-01	0.000000e+00	0.0	4.700000e-01	0.000000e+00	0.0	4.800000e-01	0.000000e+00	0.0	4.900000e-01	0.000000e+00	0.0	5.000000e-01	0.000000e+00	0.0	5.100000e-01	0.000000e+00	0.0	5.200000e-01	0.000000e+00	0.0	5.300000e-01	0.000000e+00	0.0	5.400000e-01	0.000000e+00	0.0	5.500000e-01	0.000000e+00	0.0	5.600000e-01	0.000000e+00	0.0	5.700000e-01	0.000000e+00	0.0	5.800000e-01	0.000000e+00	0.0	5.900000e-01	0.000000e+00	0.0	6.000000e-01	0.000000e+00	0.0	6.100000e-01	0.000000e+00	0.0	6.200000e-01	0.000000e+00	0.0	6.300000e-01	0.000000e+00	0.0	6.400000e-01	0.000000e+00	0.0	6.500000e-01	0.000000e+00	0.0	6.600000e-01	0.000000e+00	0.0	6.700000e-01	0.000000e+00	0.0	6.800000e-01	0.000000e+00	0.0	6.900000e-01	0.000000e+00	0.0	7.000000e-01	0.000000e+00	0.0	7.100000e-01	0.000000e+00	0.0	7.200000e-01	0.000000e+00	0.0	7.300000e-01	0.000000e+00	0.0	7.400000e-01	0.000000e+00	0.0	7.500000e-01	0.000000e+00	0.0	7.600000e-01	0.000000e+00	0.0	7.700000e-01	0.000000e+00	0.0	7.800000e-01	0.000000e+00	0.0	7.900000e-01	0.000000e+00	0.0	8.000000e-01	0.000000e+00	0.0	8.100000e-01	0.000000e+00	0.0	8.200000e-01	0.000000e+00	0.0	8.300000e-01	0.000000e+00	0.0	8.400000e-01	0.000000e+00	0.0	8.500000e-01	0.000000e+00	0.0	8.600000e-01	0.000000e+00	0.0	8.700000e-01	0.000000e+00	0.0	8.800000e-01	0.000000e+00	0.0	8.900000e-01	0.000000e+00	0.0	9.000000e-01	0.000000e+00	0.0	9.100000e-01	0.000000e+00	0.0	9.200000e-01	0.000000e+00	0.0	9.300000e-01	0.000000e+00	0.0	9.400000e-01	0.000000e+00	0.0	9.500000e-01	0.000000e+00	0.0	9.600000e-01	0.000000e+00	0.0	9.700000e-01	0.000000e+00	0.0	9.800000e-01	0.000000e+00	0.0	9.900000e-01	0.000000e+00	0.0	1.000000e+00	0.000000e+00	0.0	0.000000e+00	1.000000e-02	0.0	1.000000e-02	1.000000e-02	0.0	2.000000e-02	1.000000e-02	0.0	3.000000e-02	1.000000e-02	0.0	4.000000e-02	1.000000e-02	0.0	5.000000e-02	1.000000e-02	0.0	6.000000e-02	1.000000e-02	0.0	7.000000e-02	1.000000e-02	0.0	8.000000e-02	1.000000e-02	0.0	9.000000e-02	1.000000e-02	0.0	1.000000e-01	1.000000e-02	0.0	1.100000e-01	1.000000e-02	0.0	1.200000e-01	1.000000e-02	0.0	1.300000e-01	1.000000e-02	0.0	1.400000e-01	1.000000e-02	0.0	1.500000e-01	1.000000e-02	0.0	1.600000e-01	1.000000e-02	0.0	1.700000e-01	1.000000e-02	0.0	1.800000e-01	1.000000e-02	0.0	1.900000e-01	1.000000e-02	0.0	2.000000e-01	1.000000e-02	0.0	2.100000e-01	1.000000e-02	0.0	2.200000e-01	1.000000e-02	0.0	2.300000e-01	1.000000e-02	0.0	2.400000e-01	1.000000e-02	0.0	2.500000e-01	1.000000e-02	0.0	2.600000e-01	1.000000e-02	0.0	2.700000e-01	1.000000e-02	0.0	2.800000e-01	1.000000e-02	0.0	2.900000e-01	1.000000e-02	0.0	3.000000e-01	1.000000e-02	0.0	3.100000e-01	1.000000e-02	0.0	3.200000e-01	1.000000e-02	0.0	3.300000e-01	1.000000e-02	0.0	3.400000e-01	1.000000e-02	0.0	3.500000e-01	1.000000e-02	0.0	3.600000e-01	1.000000e-02	0.0	3.700000e-01	1.000000e-02	0.0	3.800000e-01	1.000000e-02	0.0	3.900000e-01	1.000000e-02	0.0	4.000000e-01	1.000000e-02	0.0	4.100000e-01	1.000000e-02	0.0	4.200000e-01	1.000000e-02	0.0	4.300000e-01	1.000000e-02	0.0	4.400000e-01	1.000000e-02	0.0	4.500000e-01	1.000000e-02	0.0	4.600000e-01	1.000000e-02	0.0	4.700000e-01	1.000000e-02	0.0	4.800000e-01	1.000000e-02	0.0	4.900000e-01	1.000000e-02	0.0	5.000000e-01	1.000000e-02	0.0	5.100000e-01	1.000000e-02	0.0	5.200000e-01	1.000000e-02	0.0	5.300000e-01	1.000000e-02	0.0	5.400000e-01	1.000000e-02	0.0	5.500000e-01	1.000000e-02	0.0	5.600000e-01	1.000000e-02	0.0	5.700000e-01	1.000000e-02	0.0	5.800000e-01	1.000000e-02	0.0	5.900000e-01	1.000000e-02	0.0	6.000000e-01	1.000000e-02	0.0	6.100000e-01	1.000000e-02	0.0	6.200000e-01	1.000000e-02	0.0	6.300000e-01	1.000000e-02	0.0	6.400000e-01	1.000000e-02	0.0	6.500000e-01	1.000000e-02	0.0	6.600000e-01	1.000000e-02	0.0	6.700000e-01	1.000000e-02	0.0	6.800000e-01	1.000000e-02	0.0	6.900000e-01	1.000000e-02	0.0	7.000000e-01	1.000000e-02	0.0	7.100000e-01	1.000000e-02	0.0	7.200000e-01	1.000000e-02	0.0	7.300000e-01	1.000000e-02	0.0	7.400000e-01	1.000000e-02	0.0	7.500000e-01	1.000000e-02	0.0	7.600000e-01	1.000000e-02	0.0	7.700000e-01	1.000000e-02	0.0	7.800000e-01	1.000000e-02	0.0	7.900000e-01	1.000000e-02	0.0	8.000000e-01	1.000000e-02	0.0	8.100000e-01	1.000000e-02	0.0	8.200000e-01	1.000000e-02	0.0	8.300000e-01	1.000000e-02	0.0	8.400000e-01	1.000000e-02	0.0	8.500000e-01	1.000000e-02	0.0	8.600000e-01	1.000000e-02	0.0	8.700000e-01	1.000000e-02	0.0	8.800000e-01	1.000000e-02	0.0	8.900000e-01	1.000000e-02	0.0	9.000000e-01	1.000000e-02	0.0	9.100000e-01	1.000000e-02	0.0	9.200000e-01	1.000000e-02	0.0	9.300000e-01	1.000000e-02	0.0	9.400000e-01	1.000000e-02	0.0	9.500000e-01	1.000000e-02	0.0	9.600000e-01	1.000000e-02	0.0	9.700000e-01	1.000000e-02	0.0	9.800000e-01	1.000000e-02	0.0	9.900000e-01	1.000000e-02	0.0	1.000000e+00	1.000000e-02	0.0	0.000000e+00	2.000000e-02	0.0	1.000000e-02	2.000000e-02	0.0	2.000000e-02	2.000000e-02	0.0	3.000000e-02	2.000000e-02	0.0	4.000000e-02	2.000000e-02	0.0	5.000000e-02	2.000000e-02	0.0	6.000000e-02	2.000000e-02	0.0	7.000000e-02	2.000000e-02	0.0	8.000000e-02	2.000000e-02	0.0	9.000000e-02	2.000000e-02	0.0	1.000000e-01	2.000000e-02	0.0	1.100000e-01	2.000000e-02	0.0	1.200000e-01	2.000000e-02	0.0	1.300000e-01	2.000000e-02	0.0	1.400000e-01	2.000000e-02	0.0	1.500000e-01	2.000000e-02	0.0	1.600000e-01	2.000000e-02	0.0	1.700000e-01	2.000000e-02	0.0	1.800000e-01	2.000000e-02	0.0	1.900000e-01	2.000000e-02	0.0	2.000000e-01	2.000000e-02	0.0	2.100000e-01	2.000000e-02	0.0	2.200000e-01	2.000000e-02	0.0	2.300000e-01	2.000000e-02	0.0	2.400000e-01	2.000000e-02	0.0	2.500000e-01	2.000000e-02	0.0	2.600000e-01	2.000000e-02	0.0	2.700000e-01	2.000000e-02	0.0	2.800000e-01	2.000000e-02	0.0	2.900000e-01	2.000000e-02	0.0	3.000000e-01	2.000000e-02	0.0	3.100000e-01	2.000000e-02	0.0	3.200000e-01	2.000000e-02	0.0	3.300000e-01	2.000000e-02	0.0	3.400000e-01	2.000000e-02	0.0	3.500000e-01	2.000000e-02	0.0	3.600000e-01	2.000000e-02	0.0	3.700000e-01	2.000000e-02	0.0	3.800000e-01	2.000000e-02	0.0	3.900000e-01	2.000000e-02	0.0	4.000000e-01	2.000000e-02	0.0	4.100000e-01	2.000000e-02	0.0	4.200000e-01	2.000000e-02	0.0	4.300000e-01	2.000000e-02	0.0	4.400000e-01	2.000000e-02	0.0	4.500000e-01	2.000000e-02	0.0	4.600000e-01	2.000000e-02	0.0	4.700000e-01	2.000000e-02	0.0	4.800000e-01	2.000000e-02	0.0	4.900000e-01	2.000000e-02	0.0	5.000000e-01	2.000000e-02	0.0	5.100000e-01	2.000000e-02	0.0	5.200000e-01	2.000000e-02	0.0	5.300000e-01	2.000000e-02	0.0	5.400000e-01	2.000000e-02	0.0	5.500000e-01	2.000000e-02	0.0	5.600000e-01	2.000000e-02	0.0	5.700000e-01	2.000000e-02	0.0	5.800000e-01	2.000000e-02	0.0	5.900000e-01	2.000000e-02	0.0	6.000000e-01	2.000000e-02	0.0	6.100000e-01	2.000000e-02	0.0	6.200000e-01	2.000000e-02	0.0	6.300000e-01	2.000000e-02	0.0	6.400000e-01	2.000000e-02	0.0	6.500000e-01	2.000000e-02	0.0	6.600000e-01	2.000000e-02	0.0	6.700000e-01	2.000000e-02	0.0	6.800000e-01	2.000000e-02	0.0	6.900000e-01	2.000000e-02	0.0	7.000000e-01	2.000000e-02	0.0	7.100000e-01	2.000000e-02	0.0	7.200000e-01	2.000000e-02	0.0	7.300000e-01	2.000000e-02	0.0	7.400000e-01	2.000000e-02	0.0	7.500000e-01	2.000000e-02	0.0	7.600000e-01	2.000000e-02	0.0	7.700000e-01	2.000000e-02	0.0	7.800000e-01	2.000000e-02	0.0	7.900000e-01	2.000000e-02	0.0	8.000000e-01	2.000000e-02	0.0	8.100000e-01	2.000000e-02	0.0	8.200000e-01	2.000000e-02	0.0	8.300000e-01	2.000000e-02	0.0	8.400000e-01	2.000000e-02	0.0	8.500000e-01	2.000000e-02	0.0	8.600000e-01	2.000000e-02	0.0	8.700000e-01	2.000000e-02	0.0	8.800000e-01	2.000000e-02	0.0	8.900000e-01	2.000000e-02	0.0	9.000000e-01	2.000000e-02	0.0	9.100000e-01	2.000000e-02	0.0	9.200000e-01	2.000000e-02	0.0	9.300000e-01	2.000000e-02	0.0	9.400000e-01	2.000000e-02	0.0	9.500000e-01	2.000000e-02	0.0	9.600000e-01	2.000000e-02	0.0	9.700000e-01	2.000000e-02	0.0	9.800000e-01	2.000000e-02	0.0	9.900000e-01	2.000000e-02	0.0	1.000000e+00	2.000000e-02	0.0	0.000000e+00	3.000000e-02	0.0	1.000000e-02	3.000000e-02	0.0	2.000000e-02	3.000000e-02	0.0	3.000000e-02	3.000000e-02	0.0	4.000000e-02	3.000000e-02	0.0	5.000000e-02	3.000000e-02	0.0	6.000000e-02	3.000000e-02	0.0	7.000000e-02	3.000000e-02	0.0	8.000000e-02	3.000000e-02	0.0	9.000000e-02	3.000000e-02	0.0	1.000000e-01	3.000000e-02	0.0	1.100000e-01	3.000000e-02	0.0	1.200000e-01	3.000000e-02	0.0	1.300000e-01	3.000000e-02	0.0	1.400000e-01	3.000000e-02	0.0	1.500000e-01	3.000000e-02	0.0	1.600000e-01	3.000000e-02	0.0	1.700000e-01	3.000000e-02	0.0	1.800000e-01	3.000000e-02	0.0	1.900000e-01	3.000000e-02	0.0	2.000000e-01	3.000000e-02	0.0	2.100000e-01	3.000000e-02	0.0	2.200000e-01	3.000000e-02	0.0	2.300000e-01	3.000000e-02	0.0	2.400000e-01	3.000000e-02	0.0	2.500000e-01	3.000000e-02	0.0	2.600000e-01	3.000000
[...]
POINT_DATA 10201

SCALARS Height double 1
LOOKUP_TABLE default
9.957197e-01	9.957074e-01	9.957204e-01	9.956911e-01	9.956630e-01	9.956211e-01	9.955633e-01	9.954912e-01	9.954084e-01	9.953092e-01	9.951914e-01	9.950519e-01	9.948860e-01	9.946915e-01	9.944644e-01	9.942027e-01	9.939050e-01	9.935569e-01	9.931164e-01	9.925055e-01	9.915900e-01	9.902067e-01	9.882711e-01	9.859084e-01	9.835075e-01	9.815499e-01	9.803020e-01	9.797996e-01	9.799698e-01	9.814123e-01	9.848092e-01	9.901125e-01	9.970142e-01	1.005042e+00	1.013530e+00	1.021554e+00	1.028081e+00	1.032397e+00	1.034355e+00	1.034316e+00	1.030801e+00	1.021721e+00	1.010492e+00	1.002573e+00	9.989378e-01	9.976739e-01	9.972951e-01	9.971802e-01	9.971282e-01	9.970751e-01	9.969915e-01	9.968627e-01	9.966899e-01	9.964807e-01	9.962398e-01	9.959677e-01	9.956607e-01	9.953074e-01	9.948765e-01	9.943061e-01	9.934770e-01	9.922140e-01	9.903807e-01	9.880383e-01	9.855404e-01	9.834062e-01	9.819882e-01	9.813390e-01	9.813453e-01	9.824926e-01	9.855854e-01	9.906907e-01	9.975555e-01	1.005695e+00	1.014416e+00	1.022756e+00	1.029641e+00	1.034305e+00	1.036559e+00	1.036742e+00	1.033693e+00	1.024944e+00	1.013521e+00	1.005322e+00	1.001640e+00	1.000435e+00	1.000106e+00	1.000025e+00	1.000006e+00	1.000001e+00	1.000000e+00	1.000000e+00	1.000000e+00	1.000000e+00	1.000000e+00	1.000000e+00	1.000000e+00	1.000000e+00	1.000000e+00	1.000000e+00	1.000000e+00	9.957074e-01	9.956867e-01	9.957032e-01	9.956733e-01	9.956429e-01	9.955992e-01	9.955412e-01	9.954691e-01	9.953845e-01	9.952824e-01	9.951606e-01	9.950170e-01	9.948474e-01	9.946488e-01	9.944170e-01	9.941505e-01	9.938469e-01	9.934862e-01	9.930319e-01	9.924013e-01	9.914630e-01	9.900587e-01	9.881101e-01	9.857429e-01	9.833215e-01	9.812923e-01	9.800866e-01	9.798172e-01	9.800322e-01	9.814626e-01	9.848885e-01	9.902480e-01	9.971980e-01	1.005249e+00	1.013743e+00	1.021820e+00	1.028580e+00	1.032996e+00	1.034405e+00	1.034168e+00	1.030895e+00	1.022136e+00	1.010455e+00	1.002061e+00	9.985386e-01	9.974981e-01	9.972280e-01	9.971469e-01	9.971024e-01	9.970504e-01	9.969664e-01	9.968364e-01	9.966611e-01	9.964487e-01	9.962049e-01	9.959295e-01	9.956180e-01	9.952589e-01	9.948190e-01	9.942319e-01	9.933781e-01	9.920922e-01	9.902412e-01	9.878889e-01	9.853653e-01	9.831544e-01	9.817486e-01	9.813262e-01	9.814182e-01	9.825571e-01	9.856641e-01	9.908258e-01	9.977326e-01	1.005897e+00	1.014628e+00	1.023014e+00	1.030119e+00	1.034950e+00	1.036674e+00	1.036589e+00	1.033755e+00	1.025394e+00	1.013543e+00	1.004794e+00	1.001218e+00	1.000264e+00	1.000055e+00	1.000012e+00	1.000003e+00	1.000001e+00	1.000000e+00	1.000000e+00	1.000000e+00	1.000000e+00	1.000000e+00	1.000000e+00	1.000000e+00	1.000000e+00	1.000000e+00	1.000000e+00	1.000000e+00	9.957204e-01	9.957032e-01	9.957217e-01	9.956886e-01	9.956555e-01	9.956093e-01	9.955496e-01	9.954758e-01	9.953905e-01	9.952874e-01	9.951640e-01	9.950185e-01	9.948471e-01	9.946474e-01	9.944158e-01	9.941482e-01	9.938416e-01	9.934667e-01	9.929853e-01	9.923132e-01	9.913288e-01	9.898986e-01	9.879912e-01	9.857297e-01	9.834006e-01	9.814807e-01	9.805054e-01	9.803120e-01	9.805600e-01	9.819902e-01	9.853591e-01	9.906848e-01	9.974458e-01	1.005229e+00	1.013484e+00	1.021533e+00	1.028357e+00	1.032359e+00	1.033412e+00	1.033113e+00	1.030150e+00	1.022132e+00	1.011096e+00	1.002652e+00	9.987892e-01	9.975709e-01	9.972488e-01	9.971524e-01	9.971023e-01	9.970479e-01	9.969636e-01	9.968352e-01	9.966616e-01	9.964502e-01	9.962065e-01	9.959302e-01	9.956141e-01	9.952445e-01	9.947853e-01	9.941583e-01	9.932464e-01	9.919172e-01	9.900885e-01	9.878308e-01	9.854126e-01	9.833174e-01	9.821468e-01	9.818466e-01	9.819697e-01	9.831246e-01	9.861692e-01	9.912976e-01	9.980188e-01	1.005905e+00	1.014371e+00	1.022702e+00	1.029901e+00	1.034380e+00	1.035666e+00	1.035498e+00	1.032918e+00	1.025323e+00	1.014238e+00	1.005424e+00	1.001444e+00	1.000297e+00	1.000053e+00	1.000009e+00	1.000002e+00	1.000000e+00	1.000000e+00	1.000000e+00	1.000000e+00	1.000000e+00	1.000000e+00	1.000000e+00	1.000000e+00	1.000000e+00	1.000000e+00	1.000000e+00	1.000000e+00	9.956911e-01	9.956733e-01	9.956886e-01	9.956551e-01	9.956205e-01	9.955737e-01	9.955145e-01	9.954409e-01	9.953550e-01	9.952514e-01	9.951266e-01	9.949784e-01	9.948035e-01	9.945995e-01	9.943639e-01	9.940931e-01	9.937747e-01	9.933770e-01	9.928470e-01	9.920947e-01	9.910131e-01	9.895130e-01	9.875978e-01	9.853944e-01	9.832170e-01	9.816345e-01	9.809528e-01	9.808507e-01	9.812052e-01	9.828218e-01	9.862982e-01	9.915588e-01	9.981438e-01	1.005647e+00	1.013708e+00	1.021761e+00	1.028338e+00	1.031641e+00	1.032332e+00	1.031914e+00	1.028905e+00	1.021408e+00	1.011360e+00	1.003336e+00	9.992267e-01	9.977281e-01	9.972752e-01	9.971372e-01	9.970721e-01	9.970105e-01	9.969229e-01	9.967932e-01	9.966191e-01	9.964065e-01	9.961598e-01	9.958788e-01	9.955534e-01	9.951634e-01	9.946647e-01	9.939696e-01	9.929620e-01	9.915386e-01	9.896774e-01	9.874589e-01	9.851783e-01	9.834073e-01	9.825703e-01	9.823895e-01	9.826144e-01	9.839684e-01	9.871591e-01	9.922357e-01	9.987937e-01	1.006368e+00	1.014600e+00	1.022930e+00	1.029959e+00	1.033708e+00	1.034599e+00	1.034297e+00	1.031656e+00	1.024580e+00	1.014532e+00	1.006159e+00	1.001871e+00	1.000428e+00	1.000080e+00	1.000013e+00	1.000002e+00	1.000000e+00	1.000000e+00	1.000000e+00	1.000000e+00	1.000000e+00	1.000000e+00	1.000000e+00	1.000000e+00	1.000000e+00	1.000000e+00	1.000000e+00	1.000000e+00	9.956630e-01	9.956429e-01	9.956555e-01	9.956205e-01	9.955836e-01	9.955347e-01	9.954739e-01	9.953973e-01	9.953074e-01	9.952004e-01	9.950719e-01	9.949191e-01	9.947389e-01	9.945291e-01	9.942869e-01	9.940092e-01	9.936765e-01	9.932410e-01	9.926415e-01	9.917783e-01	9.905695e-01	9.889795e-01	9.870481e-01	9.849484e-01	9.831176e-01	9.820103e-01	9.815822e-01	9.815863e-01	9.820987e-01	9.839311e-01	9.875595e-01	9.927552e-01	9.990713e-01	1.006222e+00	1.014113e+00	1.021998e+00	1.027927e+00	1.030550e+00	1.030937e+00	1.030400e+00	1.027266e+00	1.020338e+00	1.011543e+00	1.004236e+00	9.999248e-01	9.980137e-01	9.973447e-01	9.971283e-01	9.970361e-01	9.969637e-01	9.968719e-01	9.967410e-01	9.965660e-01	9.963511e-01	9.961004e-01	9.958113e-01	9.954723e-01	9.950500e-01	9.944815e-01	9.936886e-01	9.925633e-01	9.910321e-01	9.891134e-01	9.869710e-01	9.849985e-01	9.837137e-01	9.831734e-01	9.831249e-01	9.835028e-01	9.850918e-01	9.884747e-01	9.935369e-01	9.998211e-01	1.007009e+00	1.015020e+00	1.023207e+00	1.029651e+00	1.032684e+00	1.033205e+00	1.032791e+00	1.030016e+00	1.023462e+00	1.014691e+00	1.007103e+00	1.002577e+00	1.000690e+00	1.000140e+00	1.000023e+00	1.000003e+00	1.000001e+00	1.000000e+00	1.000000e+00	1.000000e+00	1.000000e+00	1.000000e+00	1.000000e+00	1.000000e+00	1.000000e+00	1.000000e+00	1.000000e+00	1.000000e+00	9.956211e-01	9.955992e-01	9.956093e-01	9.955737e-01	9.955347e-01	9.954835e-01	9.954204e-01	9.953403e-01	9.952454e-01	9.951338e-01	9.950004e-01	9.948415e-01	9.946541e-01	9.944378e-01	9.941883e-01	9.938959e-01	9.935368e-01	9.930416e-01	9.923319e-01	9.913313e-01	9.899805e-01	9.882815e-01	9.863525e-01	9.845039e-01	9.831790e-01	9.825074e-01	9.823697e-01	9.824937e-01	9.832547e-01	9.853832e-01	9.891450e-01	9.942175e-01	1.000207e+00	1.007043e+00	1.014692e+00	1.022127e+00	1.027216e+00	1.029120e+00	1.029304e+00	1.028563e+00	1.025286e+00	1.019019e+00	1.011620e+00	1.005237e+00	1.000825e+00	9.984358e-01	9.974556e-01	9.971210e-01	9.969892e-01	9.969013e-01	9.968037e-01	9.966712e-01	9.964941e-01	9.962752e-01	9.960186e-01	9.957193e-01	9.953564e-01	9.948810e-01	9.942213e-01	9.932799e-01	9.919881e-01	9.903331e-01	9.884000e-01	9.864608e-01	9.849560e-01	9.841501e-01	9.839451e-01	9.840139e-01	9.846374e-01	9.865466e-01	9.901220e-01	9.951144e-01	1.001081e+00	1.007906e+00	1.015641e+00	1.023415e+00	1.029002e+00	1.031299e+00	1.031563e+00	1.030990e+00	1.028045e+00	1.022082e+00	1.014725e+00	1.008142e+00	1.003516e+00	1.001103e+00	1.000247e+00	1.000042e+00	1.000006e+00	1.000001e+00	1.000000e+00	1.000000e+00	1.000000e+00	1.000000e+00	1.000000e+00	1.000000e+00	1.000000e+00	1.000000e+00	1.000000e+00	1.000000e+00	1.000000e+00	9.955633e-01	9.955412e-01	9.955496e-01	9.955145e-01	9.954739e-01	9.954204e-01	9.953550e-01	9.952714e-01	9.951708e-01	9.950528e-01	9.949119e-01	9.947442e-01	9.945479e-01	9.943231e-01	9.940650e-01	9.937479e-01	9.933370e-01	9.927541e-01	9.919089e-01	9.907274e-01	9.892066e-01	9.874194e-01	9.856090e-01	9.841969e-01	9.834524e-01	9.831971e-01	9.832584e-01	9.835835e-01	9.847131e-01	9.871689e-01	9.910103e-01	9.958968e-01	1.001571e+00	1.008094e+00	1.015303e+00	1.021965e+00	1.026152e+00	1.027390e+00	1.027424e+00	1.026416e+00	1.023074e+00	1.017604e+00	1.011660e+00	1.006264e+00	1.001871e+00	9.989892e-01	9.976221e-01	9.971237e-01	9.969372e-01	9.968287e-01	9.967219e-01	9.965856e-01	9.964056e-01	9.961813e-01	9.959153e-01	9.955993e-01	9.951940e-01	9.946426e-01	9.938514e-01	9.927328e-01	9.912503e-01	9.894736e-01	9.876137e-01	9.860538e-01	9.851451e-01	9.847968e-01	9.848226e-01	9.850765e-01	9.860608e-01	9.883366e-01	9.920607e-01	9.969169e-01	1.002581e+00	1.009066e+00	1.016332e+00	1.023348e+00	1.028037e+00	1.029593e+00	1.029698e+00	1.028885e+00	1.025856e+00	1.020611e+00	1.014703e+00	1.009194e+00	1.004617e+00	1.001666e+00	1.000412e+00	1.000074e+00	1.000011e+00	1.000002e+00	1.000000e+00	1.000000e+00	1.000000e+00	1.000000e+00	1.000000e+00	1.000000e+00	1.000000e+00	1.000000e+00	1.000000e+00	1.000000e+00	1.000000e+00	9.954912e-01	9.954691e-01	9.954758e-01	9.954409e-01	9.953973e-01	9.953403e-01	9.952714e-01	9.951837e-01	9.950770e-01	9.949516e-01	9.948017e-01	9.946251e-01	9.944217e-01	9.941880e-01	9.939119e-01	9.935579e-01	9.930728e-01	9.923552e-01	9.913252e-01	9.899387e-01	9.882509e-01	9.864504e-01	9.849741e-01	9.842052e-01	9.839184e-01	9.839962e-01	9.842375e-01	9.849293e-01	9.865053e-01	9.892572e-01	9.930988e-01	9.977694e-01	1.003163e+00	1.009292e+00	1.015807e+00	1.021429e+00	1.024634e+00	1.025391e+00	1.025264e+00	1.024019e+00	1.020757e+00	1.016241e+00	1.011689e+00	1.007259e+00	1.002984e+00	9.996424e-01	9.978335e-01	9.971312e-01	9.968748e-01	9.967413e-01	9.966234e-01	9.964816e-01	9.962992e-01	9.960707e-01	9.957923e-01	9.954443e-01	9.949787e-01	9.943075e-01	9.933349e-01	9.919944e-01	9.903153e-01	9.884824e-01	9.868938e-01	9.859373e-01	9.855527e-01	9.855887e-01	9.857826e-01	9.863813e-01	9.878162e-01	9.904450e-01	9.942409e-01	9.989172e-01	1.004306e+00	1.010412e+00	1.016972e+00	1.022898e+00	1.026597e+00	1.027611e+00	1.027564e+00	1.026533e+00	1.023554e+00	1.019191e+00	1.014675e+00	1.010207e+00	1.005799e+00	1.002357e+00	1.000639e+00	1.000122e+00	1.000019e+00	1.000003e+00	1.000000e+00	1.000000e+00	1.000000e+00	1.000000e+00	1.000000e+00	1.000000e+00	1.000000e+00	1.000000e+00	1.000000e+00	1.000000e+00	1.000000e+00	9.954084e-01	9.953845e-01	9.953905e-01	9.953550e-01	9.953074e-01	9.952454e-01	9.951708e-01	9.950770e-01	9.949614e-01	9.948254e-01	9.946647e-01	9.944786e-01	9.942667e-01	9.940184e-01	9.937101e-01	9.932905e-01	9.926876e-01	9.917973e-01	9.905455e-01	9.889344e-01	9.871209e-01	9.855505e-01	9.847298e-01	9.844852e-01	9.845646e-01	9.848460e-01	9.854398e-01	9.866006e-01	9.886171e-01	9.915880e-01	9.953690e-01	9.998143e-01	1.004918e+00	1.010520e+00	1.016046e+00	1.020468e+00	1.022708e+00	1.023110e+00	1.022840e+00	1.021435e+00	1.018500e+00	1.015063e+00	1.011765e+00	1.008193e+00	1.004093e+00	1.000358e+00	9.980902e-01	9.971477e-01	9.968026e-01	9.966354e-01	9.965023e-01	9.963529e-01	9.961662e-01	9.959319e-01	9.956340e-01	9.952353e-01	9.946662e-01	9.938261e-01	9.926187e-01	9.910212e-01	9.891865e-01	9.875297e-01	9.865091e-01	9.861576e-01	9.861843e-01	9.864251e-01	9.869502e-01	9.880016e-01	9.899052e-01	9.928237e-01	9.966205e-01	1.001094e+00	1.006195e+00	1.011800e+00	1.017396e+00	1.022062e+00	1.024732e+00	1.025350e+00	1.025165e+00	1.023995e+00	1.021296e+00	1.017953e+00	1.014699e+00	1.011154e+00	1.006986e+00	1.003134e+00	1.000925e+00	1.000187e+00	1.000030e+00	1.000004e+00	1.000001e+00	1.000000e+00	1.000000e+00	1.000000e+00	1.000000e+00	1.000000e+00	1.000000e+00	1.000000e+00	1.000000e+00	1.000000e+00	1.000000e+00	9.953092e-01	9.952824e-01	9.952874e-01	9.952514e-01	9.952004e-01	9.951338e-01	9.950528e-01	9.949516e-01	9.948254e-01	9.946780e-01	9.945065e-01	9.943091e-01	9.940812e-01	9.938041e-01	9.934376e-01	9.929183e-01	9.921475e-01	9.910271e-01	9.895064e-01	9.876794e-01	9.859939e-01	9.850843e-01	9.848786e-01	9.849410e-01	9.852660e-01	9.859022e-01	9.869582e-01	9.886206e-01	9.910214e-01	9.941162e-01	9.977919e-01	1.002001e+00	1.006720e+00	1.011619e+00	1.015870e+00	1.018935e+00	1.020345e+00	1.020540e+00	1.020165e+00	1.018795e+00	1.016483e+00	1.014150e+00	1.011904e+00	1.009037e+00	1.005136e+00	1.001085e+00	9.983773e-01	9.971753e-01	9.967255e-01	9.965174e-01	9.963650e-01	9.962053e-01	9.960107e-01	9.957606e-01	9.954230e-01	9.949378e-01	9.942107e-01	9.931274e-01	9.916165e-01	9.897826e-01	9.880320e-01	9.869261e-01	9.865841e-01	9.865937e-01	9.868755e-01	9.874514e-01	9.884158e-01	9.899706e-01	9.923092e-01	9.954292e-01	9.991752e-01	1.003426e+00	1.008148e+00	1.013063e+00	1.017427e+00	1.020690e+00	1.022405e+00	1.022806e+00	1.022534e+00	1.021390e+00	1.019258e+00	1.016985e+00	1.014804e+00	1.012016e+00	1.008117e+00	1.003949e+00	1.001260e+00	1.000271e+00	1.000045e+00	1.000007e+00	1.000001e+00	1.000000e+00	1.000000e+00	1.000000e+00	1.000000e+00	1.000000e+00	1.000000e+00	1.000000e+00	1.000000e+00	1.000000e+00	1.000000e+00	9.951914e-01	9.951606e-01	9.951640e-01	9.951266e-01	9.950719e-01	9.950004e-01	9.949119e-01	9.948017e-01	9.946647e-01	9.945065e-01	9.943242e-01	9.941126e-01	9.938571e-01	9.935288e-01	9.930700e-01	9.923953e-01	9.913951e-01	9.899712e-01	9.881625e-01	9.863645e-01	9.853305e-01	9.851301e-01	9.851691e-01	9.854815e-01	9.861645e-01	9.872577e-01	9.888291e-01	9.909703e-01	9.936699e-01	9.968100e-01	1.000336e+00	1.004270e+00	1.008426e+00	1.012288e+00	1.015277e+00	1.016904e+00	1.017566e+00	1.017648e+00	1.017319e+00	1.016320e+00	1.014854e+00	1.013534e+00	1.012098e+00	1.009778e+00	1.006059e+00	1.001771e+00	9.986717e-01	9.972064e-01	9.966392e-01	9.963823e-01	9.962084e-01	9.960383e-01	9.958311e-01	9.955492e-01	9.951377e-01	9.945081e-01	9.935378e-01	9.921169e-01	9.902898e-01	9.884435e-01	9.872401e-01	9.868749e-01	9.868629e-01	9.871223e-01	9.877441e-01	9.887577e-01	9.902272e-01	9.922870e-01	9.949917e-01	9.982293e-01	1.001872e+00	1.005865e+00	1.010022e+00	1.013923e+00	1.017009e+00	1.018838e+00	1.019673e+00	1.019934e+00	1.019729e+00	1.018932e+00	1.017595e+00	1.016339e+00	1.014975e+00	1.012794e+00	1.009142e+00	1.004752e+00	1.001627e+00	1.000373e+00	1.000065e+00	1.000010e+00	1.000001e+00	1.000000e+00	1.000000e+00	1.000000e+00	1.000000e+00	1.000000e+00	1.000000e+00	1.000000e+00	1.000000e+00	1.000000e+00	1.000000e+00	9.950519e-01	9.950170e-01	9.950185e-01	9.949784e-01	9.949191e-01	9.948415e-01	9.947442e-01	9.946251e-01	9.944786e-01	9.943091e-01	9.941126e-01	9.938740e-01	9.935703e-01	9.931553e-01	9.925527e-01	9.916511e-01	9.903259e-01	9.885591e-01	9.866870e-01	9.855179e-01	9.852863e-01	9.853218e-01	9.855725e-01	9.862314e-01	9.873688e-01	9.889775e-01	9.910649e-01	9.936064e-01	9.964948e-01	9.996156e-01	1.002958e+00	1.006505e+00	1.009862e+00	1.012348e+00	1.013910e+00	1.014404e+00	1.014456e+00	1.014459e+00	1.014486e+00	1.014202e+00	1.013690e+00	1.013185e+00	1.012321e+00	1.010406e+00	1.006830e+00	1.002378e+00	9.989537e-01	9.972360e-01	9.965435e-01	9.962315e-01	9.960296e-01	9.958388e-01	9.956022e-01	9.952580e-01	9.947168e-01	9.938483e-01	9.925170e-01	9.907145e-01	9.888030e-01	9.875169e-01	9.870971e-01	9.870655e-01	9.872576e-01	9.878461e-01	9.889009e-01	9.904132e-01	9.924074e-01	9.949201e-01	9.978939e-01	1.001179e+00	1.004665e+00	1.008276e+00	1.011632e+00	1.014166e+00	1.015871e+00	1.016506e+00	1.016655e+00	1.016720e+00	1.016932e+00	1.016798e+00	1.016408e+00	1.015959e+00	1.015199e+00	1.013470e+00	1.010031e+00	1.005504e+00	1.002011e+00	1.000492e+00	1.000090e+00	1.000014e+00	1.000002e+00	1.000000e+00	1.000000e+00	1.000000e+00	1.000000e+00	1.000000e+00	1.000000e+00	1.000000e+00	1.000000e+00	1.000000e+00	1.000000e+00	9.948860e-01	9.948474e-01	9.948471e-01	9.948035e-01	9.947389e-01	9.946541e-01	9.945479e-01	9.944217e-01	9.942667e-01	9.940812e-01	9.938571e-01	9.935703e-01	9.931827e-01	9.926283e-01	9.918020e-01	9.905624e-01	9.888457e-01	9.869467e-01	9.856818e-01	9.853768e-01	9.854210e-01	9.856108e-01	9.861889e-01	9.873041e-01	9.889600e-01	9.910996e-01	9.936471e-01	9.964755e-01	9.994492e-01	1.002517e+00	1.005658e+00	1.008557e+00	1.010619e+00	1.011797e+00	1.011762e+00	1.011461e+00	1.011176e+00	1.011133e+00	1.011723e+00	1.012719e+00	1.013044e+00	1.012987e+00	1.012528e+00	1.010893e+00	1.007429e+00	1.002882e+00	9.992045e-01	9.972592e-01	9.964379e-01	9.960637e-01	9.958257e-01	9.955979e-01	9.952983e-01	9.948299e-01	9.940527e-01	9.928056e-01	9.910392e-01	9.890990e-01	9.877563e-01	9.872867e-01	9.872325e-01	9.873645e-01	9.878540e-01	9.888713e-01	9.904266e-01	9.924694e-01	9.949626e-01	9.978371e-01	1.000971e+00	1.004252e+00	1.007550e+00	1.010512e+00	1.012634e+00	1.013821e+00	1.013925e+00	1.013689e+00	1.013443e+00	1.013427e+00	1.014111e+00	1.015306e+00	1.015824e+00	1.015787e+00	1.015430e+00	1.014019e+00	1.010765e+00	1.006177e+00	1.002395e+00	1.000622e+00	1.000119e+00	1.000019e+00	1.000003e+00	1.000000e+00	1.000000e+00	1.000000e+00	1.000000e+00	1.000000e+00	1.000000e+00	1.000000e+00	1.000000e+00	1.000000e+00	1.000000e+00	9.946915e-01	9.946488e-01	9.946474e-01	9.945995e-01	9.945291e-01	9.944378e-01	9.943231e-01	9.941880e-01	9.940184e-01	9.938041e-01	9.935288e-01	9.931553e-01	9.926283e-01	9.918527e-01	9.906819e-01	9.890190e-01	9.871184e-01	9.858063e-01	9.854411e-01	9.854710e-01	9.856279e-01	9.861074e-01	9.871382e-01	9.887823e-01	9.909748e-01	9.936050e-01	9.965144e-01	9.995291e-01	1.002573e+00	1.005608e+00	1.008250e+00	1.009877e+00	1.010463e+00	1.010226e+00	1.009143e+00	1.008107e+00	1.007725e+00	1.007925e+00	1.009496e+00	1.011769e+00	1.012845e+00	1.012954e+00	1.012678e+00	1.011219e+00	1.007856e+00	1.003274e+00	9.994165e-01	9.972683e-01	9.963169e-01	9.958687e-01	9.955734e-01	9.952725e-01	9.948457e-01	9.941391e-01	9.929700e-01	9.912540e-01	9.893209e-01	9.879623e-01	9.874586e-01	9.873861e-01	9.874740e-01	9.878553e-01	9.887616e-01	9.902812e-01	9.923661e-01	9.949279e-01	9.978508e-01	1.000995e+00	1.004257e+00	1.007520e+00	1.010353e+00	1.012077e+00	1.012633e+00	1.012507e+00	1.011497e+00	1.010443e+00	1.010049e+00	1.010227e+00	1.011848e+00	1.014366e+00	1.015652e+00	1.015821e+00	1.015651e+00	1.014433e+00	1.011340e+00	1.006757e+00	1.002765e+00	1.000761e+00	1.000153e+00	1.000025e+00	1.000004e+00	1.000001e+00	1.000000e+00	1.000000e+00	1.000000e+00	1.000000e+00	1.000000e+00	1.000000e+00	1.000000e+00	1.000000e+00	1.000000e+00	9.944644e-01	9.944170e-01	9.944158e-01	9.943639e-01	9.942869e-01	9.941883e-01	9.940650e-01	9.939119e-01	9.937101e-01	9.934376e-01	9.930700e-01	9.925527e-01	9.918020e-01	9.906819e-01	9.890774e-01	9.871987e-01	9.858778e-01	9.854845e-01	9.855061e-01	9.856432e-01	9.860378e-01	9.869561e-01	9.885213e-01	9.907073e-01	9.934016e-01	9.964373e-01	9.996261e-01	1.002841e+00	1.005966e+00	1.008576e+00	1.009919e+00	1.010064e+00	1.009693e+00	1.007993e+00	1.005755e+00	1.004579e+00	1.004278e+00	1.005117e+00	1.008059e+00	1.011400e+00	1.012770e+00	1.012991e+00	1.012793e+00	1.011408e+00	1.008127e+00	1.003554e+00	9.995746e-01	9.972529e-01	9.961664e-01	9.956206e-01	9.952272e-01	9.947823e-01	9.941044e-01	9.929910e-01	9.913393e-01	9.894643e-01	9.881381e-01	9.876214e-01	9.875313e-01	9.875946e-01	9.878910e-01	9.886672e-01	9.900817e-01	9.921319e-01	9.947333e-01	9.977596e-01	1.001050e+00	1.004465e+00	1.007842e+00	1.010711e+00	1.012243e+00	1.012453e+00	1.012129e+00	1.010532e+00	1.008272e+00	1.006980e+00	1.006640e+00	1.007391e+00	1.010371e+00	1.014019e+00	1.015658e+00	1.015954e+00	1.015840e+00	1.014726e+00	1.011771e+00	1.007246e+00	1.003110e+00	1.000902e+00	1.000189e+00	1.000032e+00	1.000005e+00	1.000001e+00	1.000000e+00	1.000000e+00	1.000000e+00	1.000000e+00	1.000000e+00	1.000000e+00	1.000000e+00	1.000000e+00	1.000000e+00	9.942027e-01	9.941505e-01	9.941482e-01	9.940931e-01	9.940092e-01	9.938959e-01	9.937479e-01	9.935579e-01	9.932905e-01	9.929183e-01	9.923953e-01	9.916511e-01	9.905624e-01	9.890190e-01	9.871987e-01	9.858981e-01	9.855017e-01	9.855297e-01	9.856523