# vtk DataFile Version 3.0
vtk output
ASCII
DATASET STRUCTURED_GRID
DIMENSIONS 101 101 1
POINTS 10201 double
0.000000e+00	0.000000e+00	0.0	1.000000e-02	0.000000e+00	0.0	2.000000e-02	0.000000e+00	0.0	3.000000e-02	0.000000e+00	0.0	4.000000e-02	0.000000e+00	0.0	5.000000e-02	0.000000e+00	0.0	6.000000e-02	0.000000e+00	0.0	7.000000e-02	0.000000e+00	0.0	8.000000e-02	0.000000e+00	0.0	9.000000e-02	0.000000e+00	0.0	1.000000e-01	0.000000e+00	0.0	1.100000e-01	0.000000e+00	0.0	1.200000e-01	0.000000e+00	0.0	1.300000e-01	0.000000e+00	0.0	1.400000e-01	0.000000e+00	0.0	1.500000e-01	0.000000e+00	0.0	1.600000e-01	0.000000e+00	0.0	1.700000e-01	0.000000e+00	0.0	1.800000e-01	0.000000e+00	0.0	1.900000e-01	0.000000e+00	0.0	2.000000e-01	0.000000e+00	0.0	2.100000e-01	0.000000e+00	0.0	2.200000e-01	0.000000e+00	0.0	2.300000e-01	0.000000e+00	0.0	2.400000e-01	0.000000e+00	0.0	2.500000e-01	0.000000e+00	0.0	2.600000e-01	0.000000e+00	0.0	2.700000e-01	0.000000e+00	0.0	2.800000e-01	0.000000e+00	0.0	2.900000e-01	0.000000e+00	0.0	3.000000e-01	0.000000e+00	0.0	3.100000e-01	0.000000e+00	0.0	3.200000e-01	0.000000e+00	0.0	3.300000e-01	0.000000e+00	0.0	3.400000e-01	0.000000e+00	0.0	3.500000e-01	0.000000e+00	0.0	3.600000e-01	0.000000e+00	0.0	3.700000e-01	0.000000e+00	0.0	3.800000e-01	0.000000e+00	0.0	3.900000e-01	0.000000e+00	0.0	4.000000e-01	0.000000e+00	0.0	4.100000e-01	0.000000e+00	0.0	4.200000e-01	0.000000e+00	0.0	4.300000e-01	0.000000e+00	0.0	4.400000e-01	0.000000e+00	0.0	4.500000e-01	0.000000e+00	0.0	4.600000e-01	0.000000e+00	0.0	4.700000e-01	0.000000e+00	0.0	4.800000e-01	0.000000e+00	0.0	4.900000e-01	0.000000e+00	0.0	5.000000e-01	0.000000e+00	0.0	5.100000e-01	0.000000e+00	0.0	5.200000e-01	0.000000e+00	0.0	5.300000e-01	0.000000e+00	0.0	5.400000e-01	0.000000e+00	0.0	5.500000e-01	0.000000e+00	0.0	5.600000e-01	0.000000e+00	0.0	5.700000e-01	0.000000e+00	0.0	5.800000e-01	0.000000e+00	0.0	5.900000e-01	0.000000e+00	0.0	6.000000e-01	0.000000e+00	0.0	6.100000e-01	0.000000e+00	0.0	6.200000e-01	0.000000e+00	0.0	6.300000e-01	0.000000e+00	0.0	6.400000e-01	0.000000e+00	0.0	6.500000e-01	0.000000e+00	0.0	6.600000e-01	0.000000e+00	0.0	6.700000e-01	0.000000e+00	0.0	6.800000e-01	0.000000e+00	0.0	6.900000e-01	0.000000e+00	0.0	7.000000e-01	0.000000e+00	0.0	7.100000e-01	0.000000e+00	0.0	7.200000e-01	0.000000e+00	0.0	7.300000e-01	0.000000e+00	0.0	7.400000e-01	0.000000e+00	0.0	7.500000e-01	0.000000e+00	0.0	7.600000e-01	0.000000e+00	0.0	7.700000e-01	0.000000e+00	0.0	7.800000e-01	0.000000e+00	0.0	7.900000e-01	0.000000e+00	0.0	8.000000e-01	0.000000e+00	0.0	8.100000e-01	0.000000e+00	0.0	8.200000e-01	0.000000e+00	0.0	8.300000e-01	0.000000e+00	0.0	8.400000e-01	0.000000e+00	0.0	8.500000e-01	0.000000e+00	0.0	8.600000e-01	0.000000e+00	0.0	8.700000e-01	0.000000e+00	0.0	8.800000e-01	0.000000e+00	0.0	8.900000e-01	0.000000e+00	0.0	9.000000e-01	0.000000e+00	0.0	9.100000e-01	0.000000e+00	0.0	9.200000e-01	0.000000e+00	0.0	9.300000e-01	0.000000e+00	0.0	9.400000e-01	0.000000e+00	0.0	9.500000e-01	0.000000e+00	0.0	9.600000e-01	0.000000e+00	0.0	9.700000e-01	0.000000e+00	0.0	9.800000e-01	0.000000e+00	0.0	9.900000e-01	0.000000e+00	0.0	1.000000e+00	0.000000e+00	0.0	0.000000e+00	1.000000e-02	0.0	1.000000e-02	1.000000e-02	0.0	2.000000e-02	1.000000e-02	0.0	3.000000e-02	1.000000e-02	0.0	4.000000e-02	1.000000e-02	0.0	5.000000e-02	1.000000e-02	0.0	6.000000e-02	1.000000e-02	0.0	7.000000e-02	1.000000e-02	0.0	8.000000e-02	1.000000e-02	0.0	9.000000e-02	1.000000e-02	0.0	1.000000e-01	1.000000e-02	0.0	1.100000e-01	1.000000e-02	0.0	1.200000e-01	1.000000e-02	0.0	1.300000e-01	1.000000e-02	0.0	1.400000e-01	1.000000e-02	0.0	1.500000e-01	1.000000e-02	0.0	1.600000e-01	1.000000e-02	0.0	1.700000e-01	1.000000e-02	0.0	1.800000e-01	1.000000e-02	0.0	1.900000e-01	1.000000e-02	0.0	2.000000e-01	1.000000e-02	0.0	2.100000e-01	1.000000e-02	0.0	2.200000e-01	1.000000e-02	0.0	2.300000e-01	1.000000e-02	0.0	2.400000e-01	1.000000e-02	0.0	2.500000e-01	1.000000e-02	0.0	2.600000e-01	1.000000e-02	0.0	2.700000e-01	1.000000e-02	0.0	2.800000e-01	1.000000e-02	0.0	2.900000e-01	1.000000e-02	0.0	3.000000e-01	1.000000e-02	0.0	3.100000e-01	1.000000e-02	0.0	3.200000e-01	1.000000e-02	0.0	3.300000e-01	1.000000e-02	0.0	3.400000e-01	1.000000e-02	0.0	3.500000e-01	1.000000e-02	0.0	3.600000e-01	1.000000e-02	0.0	3.700000e-01	1.000000e-02	0.0	3.800000e-01	1.000000e-02	0.0	3.900000e-01	1.000000e-02	0.0	4.000000e-01	1.000000e-02	0.0	4.100000e-01	1.000000e-02	0.0	4.200000e-01	1.000000e-02	0.0	4.300000e-01	1.000000e-02	0.0	4.400000e-01	1.000000e-02	0.0	4.500000e-01	1.000000e-02	0.0	4.600000e-01	1.000000e-02	0.0	4.700000e-01	1.000000e-02	0.0	4.800000e-01	1.000000e-02	0.0	4.900000e-01	1.000000e-02	0.0	5.000000e-01	1.000000e-02	0.0	5.100000e-01	1.000000e-02	0.0	5.200000e-01	1.000000e-02	0.0	5.300000e-01	1.000000e-02	0.0	5.400000e-01	1.000000e-02	0.0	5.500000e-01	1.000000e-02	0.0	5.600000e-01	1.000000e-02	0.0	5.700000e-01	1.000000e-02	0.0	5.800000e-01	1.000000e-02	0.0	5.900000e-01	1.000000e-02	0.0	6.000000e-01	1.000000e-02	0.0	6.100000e-01	1.000000e-02	0.0	6.200000e-01	1.000000e-02	0.0	6.300000e-01	1.000000e-02	0.0	6.400000e-01	1.000000e-02	0.0	6.500000e-01	1.000000e-02	0.0	6.600000e-01	1.000000e-02	0.0	6.700000e-01	1.000000e-02	0.0	6.800000e-01	1.000000e-02	0.0	6.900000e-01	1.000000e-02	0.0	7.000000e-01	1.000000e-02	0.0	7.100000e-01	1.000000e-02	0.0	7.200000e-01	1.000000e-02	0.0	7.300000e-01	1.000000e-02	0.0	7.400000e-01	1.000000e-02	0.0	7.500000e-01	1.000000e-02	0.0	7.600000e-01	1.000000e-02	0.0	7.700000e-01	1.000000e-02	0.0	7.800000e-01	1.000000e-02	0.0	7.900000e-01	1.000000e-02	0.0	8.000000e-01	1.000000e-02	0.0	8.100000e-01	1.000000e-02	0.0	8.200000e-01	1.000000e-02	0.0	8.300000e-01	1.000000e-02	0.0	8.400000e-01	1.000000e-02	0.0	8.500000e-01	1.000000e-02	0.0	8.600000e-01	1.000000e-02	0.0	8.700000e-01	1.000000e-02	0.0	8.800000e-01	1.000000e-02	0.0	8.900000e-01	1.000000e-02	0.0	9.000000e-01	1.000000e-02	0.0	9.100000e-01	1.000000e-02	0.0	9.200000e-01	1.000000e-02	0.0	9.300000e-01	1.000000e-02	0.0	9.400000e-01	1.000000e-02	0.0	9.500000e-01	1.000000e-02	0.0	9.600000e-01	1.000000e-02	0.0	9.700000e-01	1.000000e-02	0.0	9.800000e-01	1.000000e-02	0.0	9.900000e-01	1.000000e-02	0.0	1.000000e+00	1.000000e-02	0.0	0.000000e+00	2.000000e-02	0.0	1.000000e-02	2.000000e-02	0.0	2.000000e-02	2.000000e-02	0.0	3.000000e-02	2.000000e-02	0.0	4.000000e-02	2.000000e-02	0.0	5.000000e-02	2.000000e-02	0.0	6.000000e-02	2.000000e-02	0.0	7.000000e-02	2.000000e-02	0.0	8.000000e-02	2.000000e-02	0.0	9.000000e-02	2.000000e-02	0.0	1.000000e-01	2.000000e-02	0.0	1.100000e-01	2.000000e-02	0.0	1.200000e-01	2.000000e-02	0.0	1.300000e-01	2.000000e-02	0.0	1.400000e-01	2.000000e-02	0.0	1.500000e-01	2.000000e-02	0.0	1.600000e-01	2.000000e-02	0.0	1.700000e-01	2.000000e-02	0.0	1.800000e-01	2.000000e-02	0.0	1.900000e-01	2.000000e-02	0.0	2.000000e-01	2.000000e-02	0.0	2.100000e-01	2.000000e-02	0.0	2.200000e-01	2.000000e-02	0.0	2.300000e-01	2.000000e-02	0.0	2.400000e-01	2.000000e-02	0.0	2.500000e-01	2.000000e-02	0.0	2.600000e-01	2.000000e-02	0.0	2.700000e-01	2.000000e-02	0.0	2.800000e-01	2.000000e-02	0.0	2.900000e-01	2.000000e-02	0.0	3.000000e-01	2.000000e-02	0.0	3.100000e-01	2.000000e-02	0.0	3.200000e-01	2.000000e-02	0.0	3.300000e-01	2.000000e-02	0.0	3.400000e-01	2.000000e-02	0.0	3.500000e-01	2.000000e-02	0.0	3.600000e-01	2.000000e-02	0.0	3.700000e-01	2.000000e-02	0.0	3.800000e-01	2.000000e-02	0.0	3.900000e-01	2.000000e-02	0.0	4.000000e-01	2.000000e-02	0.0	4.100000e-01	2.000000e-02	0.0	4.200000e-01	2.000000e-02	0.0	4.300000e-01	2.000000e-02	0.0	4.400000e-01	2.000000e-02	0.0	4.500000e-01	2.000000e-02	0.0	4.600000e-01	2.000000e-02	0.0	4.700000e-01	2.000000e-02	0.0	4.800000e-01	2.000000e-02	0.0	4.900000e-01	2.000000e-02	0.0	5.000000e-01	2.000000e-02	0.0	5.100000e-01	2.000000e-02	0.0	5.200000e-01	2.000000e-02	0.0	5.300000e-01	2.000000e-02	0.0	5.400000e-01	2.000000e-02	0.0	5.500000e-01	2.000000e-02	0.0	5.600000e-01	2.000000e-02	0.0	5.700000e-01	2.000000e-02	0.0	5.800000e-01	2.000000e-02	0.0	5.900000e-01	2.000000e-02	0.0	6.000000e-01	2.000000e-02	0.0	6.100000e-01	2.000000e-02	0.0	6.200000e-01	2.000000e-02	0.0	6.300000e-01	2.000000e-02	0.0	6.400000e-01	2.000000e-02	0.0	6.500000e-01	2.000000e-02	0.0	6.600000e-01	2.000000e-02	0.0	6.700000e-01	2.000000e-02	0.0	6.800000e-01	2.000000e-02	0.0	6.900000e-01	2.000000e-02	0.0	7.000000e-01	2.000000e-02	0.0	7.100000e-01	2.000000e-02	0.0	7.200000e-01	2.000000e-02	0.0	7.300000e-01	2.000000e-02	0.0	7.400000e-01	2.000000e-02	0.0	7.500000e-01	2.000000e-02	0.0	7.600000e-01	2.000000e-02	0.0	7.700000e-01	2.000000e-02	0.0	7.800000e-01	2.000000e-02	0.0	7.900000e-01	2.000000e-02	0.0	8.000000e-01	2.000000e-02	0.0	8.100000e-01	2.000000e-02	0.0	8.200000e-01	2.000000e-02	0.0	8.300000e-01	2.000000e-02	0.0	8.400000e-01	2.000000e-02	0.0	8.500000e-01	2.000000e-02	0.0	8.600000e-01	2.000000e-02	0.0	8.700000e-01	2.000000e-02	0.0	8.800000e-01	2.000000e-02	0.0	8.900000e-01	2.000000e-02	0.0	9.000000e-01	2.000000e-02	0.0	9.100000e-01	2.000000e-02	0.0	9.200000e-01	2.000000e-02	0.0	9.300000e-01	2.000000e-02	0.0	9.400000e-01	2.000000e-02	0.0	9.500000e-01	2.000000e-02	0.0	9.600000e-01	2.000000e-02	0.0	9.700000e-01	2.000000e-02	0.0	9.800000e-01	2.000000e-02	0.0	9.900000e-01	2.000000e-02	0.0	1.000000e+00	2.000000e-02	0.0	0.000000e+00	3.000000e-02	0.0	1.000000e-02	3.000000e-02	0.0	2.000000e-02	3.000000e-02	0.0	3.000000e-02	3.000000e-02	0.0	4.000000e-02	3.000000e-02	0.0	5.000000e-02	3.000000e-02	0.0	6.000000e-02	3.000000e-02	0.0	7.000000e-02	3.000000e-02	0.0	8.000000e-02	3.000000e-02	0.0	9.000000e-02	3.000000e-02	0.0	1.000000e-01	3.000000e-02	0.0	1.100000e-01	3.000000e-02	0.0	1.200000e-01	3.000000e-02	0.0	1.300000e-01	3.000000e-02	0.0	1.400000e-01	3.000000e-02	0.0	1.500000e-01	3.000000e-02	0.0	1.600000e-01	3.000000e-02	0.0	1.700000e-01	3.000000e-02	0.0	1.800000e-01	3.000000e-02	0.0	1.900000e-01	3.000000e-02	0.0	2.000000e-01	3.000000e-02	0.0	2.100000e-01	3.000000e-02	0.0	2.200000e-01	3.000000e-02	0.0	2.300000e-01	3.000000e-02	0.0	2.400000e-01	3.000000e-02	0.0	2.500000e-01	3.000000e-02	0.0	2.600000e-01	3.000000
[...]
POINT_DATA 10201

SCALARS Height double 1
LOOKUP_TABLE default
9.979624e-01	9.980101e-01	9.979785e-01	9.979762e-01	9.979756e-01	9.979748e-01	9.979689e-01	9.979570e-01	9.979447e-01	9.979303e-01	9.979138e-01	9.978953e-01	9.978736e-01	9.978490e-01	9.978216e-01	9.977912e-01	9.977584e-01	9.977237e-01	9.976853e-01	9.976429e-01	9.975938e-01	9.975326e-01	9.974644e-01	9.973900e-01	9.973119e-01	9.972279e-01	9.971402e-01	9.970440e-01	9.969383e-01	9.968203e-01	9.966871e-01	9.965357e-01	9.963631e-01	9.961666e-01	9.959412e-01	9.956792e-01	9.953606e-01	9.949454e-01	9.943692e-01	9.935416e-01	9.923645e-01	9.907994e-01	9.889587e-01	9.871500e-01	9.857477e-01	9.849270e-01	9.846174e-01	9.846926e-01	9.855885e-01	9.879546e-01	9.919050e-01	9.971757e-01	1.003310e+00	1.009819e+00	1.016120e+00	1.021463e+00	1.025150e+00	1.027028e+00	1.027419e+00	1.026336e+00	1.021831e+00	1.013889e+00	1.005923e+00	1.000978e+00	9.988344e-01	9.980980e-01	9.978731e-01	9.978006e-01	9.977617e-01	9.977140e-01	9.976336e-01	9.975081e-01	9.973393e-01	9.971372e-01	9.969095e-01	9.966548e-01	9.963572e-01	9.959797e-01	9.954602e-01	9.947079e-01	9.936163e-01	9.921235e-01	9.903093e-01	9.884559e-01	9.869520e-01	9.860240e-01	9.856288e-01	9.856327e-01	9.863309e-01	9.884235e-01	9.921448e-01	9.972959e-01	1.003436e+00	1.010069e+00	1.016639e+00	1.022497e+00	1.027233e+00	1.031530e+00	1.037196e+00	1.043754e+00	1.050105e+00	9.979677e-01	9.980310e-01	9.979695e-01	9.979715e-01	9.979725e-01	9.979722e-01	9.979671e-01	9.979565e-01	9.979431e-01	9.979277e-01	9.979100e-01	9.978901e-01	9.978671e-01	9.978410e-01	9.978118e-01	9.977795e-01	9.977444e-01	9.977070e-01	9.976664e-01	9.976198e-01	9.975692e-01	9.975091e-01	9.974435e-01	9.973726e-01	9.972957e-01	9.972156e-01	9.971293e-01	9.970343e-01	9.969291e-01	9.968113e-01	9.966780e-01	9.965261e-01	9.963527e-01	9.961549e-01	9.959276e-01	9.956630e-01	9.953402e-01	9.949202e-01	9.943379e-01	9.935038e-01	9.923222e-01	9.907524e-01	9.889016e-01	9.870620e-01	9.855975e-01	9.847841e-01	9.845882e-01	9.847022e-01	9.855846e-01	9.879152e-01	9.918797e-01	9.971804e-01	1.003357e+00	1.009894e+00	1.016223e+00	1.021688e+00	1.025565e+00	1.027235e+00	1.027390e+00	1.026349e+00	1.022141e+00	1.014238e+00	1.005838e+00	1.000628e+00	9.985836e-01	9.979882e-01	9.978310e-01	9.977802e-01	9.977467e-01	9.977009e-01	9.976218e-01	9.974967e-01	9.973268e-01	9.971226e-01	9.968927e-01	9.966353e-01	9.963345e-01	9.959534e-01	9.954292e-01	9.946713e-01	9.935761e-01	9.920797e-01	9.902576e-01	9.883786e-01	9.868145e-01	9.858694e-01	9.855888e-01	9.856426e-01	9.863352e-01	9.883903e-01	9.921183e-01	9.972935e-01	1.003476e+00	1.010133e+00	1.016707e+00	1.022611e+00	1.027431e+00	1.031534e+00	1.037154e+00	1.043955e+00	1.050672e+00	9.979801e-01	9.980475e-01	9.979772e-01	9.979794e-01	9.979797e-01	9.979788e-01	9.979728e-01	9.979609e-01	9.979477e-01	9.979323e-01	9.979141e-01	9.978929e-01	9.978682e-01	9.978410e-01	9.978114e-01	9.977793e-01	9.977454e-01	9.977105e-01	9.976686e-01	9.976231e-01	9.975732e-01	9.975117e-01	9.974447e-01	9.973730e-01	9.972961e-01	9.972135e-01	9.971276e-01	9.970321e-01	9.969266e-01	9.968083e-01	9.966747e-01	9.965229e-01	9.963499e-01	9.961523e-01	9.959244e-01	9.956566e-01	9.953266e-01	9.948961e-01	9.942988e-01	9.934495e-01	9.922674e-01	9.907257e-01	9.889249e-01	9.871098e-01	9.856589e-01	9.849487e-01	9.848284e-01	9.849681e-01	9.858774e-01	9.881701e-01	9.920756e-01	9.973040e-01	1.003376e+00	1.009790e+00	1.016057e+00	1.021606e+00	1.025440e+00	1.026801e+00	1.026897e+00	1.025883e+00	1.022004e+00	1.014500e+00	1.006129e+00	1.000703e+00	9.985688e-01	9.979719e-01	9.978216e-01	9.977725e-01	9.977394e-01	9.976945e-01	9.976177e-01	9.974958e-01	9.973283e-01	9.971248e-01	9.968937e-01	9.966325e-01	9.963236e-01	9.959314e-01	9.953916e-01	9.946160e-01	9.935129e-01	9.920368e-01	9.902615e-01	9.884144e-01	9.868553e-01	9.859992e-01	9.858170e-01	9.858915e-01	9.866161e-01	9.886490e-01	9.923209e-01	9.974341e-01	1.003509e+00	1.010039e+00	1.016528e+00	1.022491e+00	1.027315e+00	1.031197e+00	1.036904e+00	1.043746e+00	1.050263e+00	9.979788e-01	9.980425e-01	9.979699e-01	9.979706e-01	9.979698e-01	9.979689e-01	9.979638e-01	9.979532e-01	9.979412e-01	9.979265e-01	9.979090e-01	9.978887e-01	9.978651e-01	9.978382e-01	9.978087e-01	9.977771e-01	9.977431e-01	9.977070e-01	9.976661e-01	9.976196e-01	9.975691e-01	9.975071e-01	9.974397e-01	9.973678e-01	9.972901e-01	9.972072e-01	9.971203e-01	9.970237e-01	9.969164e-01	9.967960e-01	9.966597e-01	9.965049e-01	9.963291e-01	9.961288e-01	9.958966e-01	9.956217e-01	9.952789e-01	9.948271e-01	9.942022e-01	9.933199e-01	9.921134e-01	9.905749e-01	9.887898e-01	9.869926e-01	9.856553e-01	9.851253e-01	9.850488e-01	9.852375e-01	9.862276e-01	9.885854e-01	9.924721e-01	9.976386e-01	1.003591e+00	1.009897e+00	1.016174e+00	1.021752e+00	1.025280e+00	1.026365e+00	1.026395e+00	1.025367e+00	1.021635e+00	1.014459e+00	1.006319e+00	1.000898e+00	9.986505e-01	9.979877e-01	9.978145e-01	9.977570e-01	9.977199e-01	9.976732e-01	9.975967e-01	9.974765e-01	9.973104e-01	9.971066e-01	9.968726e-01	9.966046e-01	9.962840e-01	9.958721e-01	9.953058e-01	9.944972e-01	9.933641e-01	9.918839e-01	9.901215e-01	9.882861e-01	9.868191e-01	9.861506e-01	9.860296e-01	9.861458e-01	9.869535e-01	9.890632e-01	9.927341e-01	9.977920e-01	1.003756e+00	1.010168e+00	1.016651e+00	1.022679e+00	1.027278e+00	1.030923e+00	1.036587e+00	1.043220e+00	1.049433e+00	9.979797e-01	9.980409e-01	9.979669e-01	9.979663e-01	9.979633e-01	9.979611e-01	9.979557e-01	9.979451e-01	9.979320e-01	9.979177e-01	9.979004e-01	9.978801e-01	9.978564e-01	9.978299e-01	9.978010e-01	9.977695e-01	9.977353e-01	9.976988e-01	9.976578e-01	9.976109e-01	9.975602e-01	9.974983e-01	9.974309e-01	9.973587e-01	9.972804e-01	9.971975e-01	9.971084e-01	9.970104e-01	9.969011e-01	9.967778e-01	9.966379e-01	9.964790e-01	9.962993e-01	9.960947e-01	9.958575e-01	9.955732e-01	9.952135e-01	9.947333e-01	9.940706e-01	9.931485e-01	9.919088e-01	9.903584e-01	9.885771e-01	9.868666e-01	9.857560e-01	9.853869e-01	9.853458e-01	9.856057e-01	9.867031e-01	9.891436e-01	9.930327e-01	9.980888e-01	1.003887e+00	1.010107e+00	1.016407e+00	1.021831e+00	1.024929e+00	1.025769e+00	1.025759e+00	1.024711e+00	1.021080e+00	1.014243e+00	1.006523e+00	1.001184e+00	9.988123e-01	9.980411e-01	9.978179e-01	9.977418e-01	9.976969e-01	9.976468e-01	9.975700e-01	9.974516e-01	9.972876e-01	9.970836e-01	9.968452e-01	9.965681e-01	9.962310e-01	9.957908e-01	9.951873e-01	9.943381e-01	9.931699e-01	9.916673e-01	9.899003e-01	9.881234e-01	9.868668e-01	9.863885e-01	9.863140e-01	9.864916e-01	9.874072e-01	9.896163e-01	9.933137e-01	9.982784e-01	1.004091e+00	1.010404e+00	1.016915e+00	1.022858e+00	1.027109e+00	1.030588e+00	1.036148e+00	1.042407e+00	1.048226e+00	9.979767e-01	9.980335e-01	9.979634e-01	9.979609e-01	9.979559e-01	9.979524e-01	9.979467e-01	9.979363e-01	9.979233e-01	9.979081e-01	9.978902e-01	9.978696e-01	9.978461e-01	9.978201e-01	9.977916e-01	9.977600e-01	9.977252e-01	9.976879e-01	9.976463e-01	9.975994e-01	9.975485e-01	9.974871e-01	9.974199e-01	9.973476e-01	9.972686e-01	9.971855e-01	9.970947e-01	9.969947e-01	9.968828e-01	9.967561e-01	9.966121e-01	9.964485e-01	9.962629e-01	9.960522e-01	9.958072e-01	9.955098e-01	9.951273e-01	9.946123e-01	9.938995e-01	9.929269e-01	9.916486e-01	9.900597e-01	9.882963e-01	9.867670e-01	9.859321e-01	9.856992e-01	9.857075e-01	9.860615e-01	9.873043e-01	9.898531e-01	9.937317e-01	9.986487e-01	1.004299e+00	1.010466e+00	1.016716e+00	1.021805e+00	1.024459e+00	1.025072e+00	1.025015e+00	1.023909e+00	1.020328e+00	1.013891e+00	1.006706e+00	1.001560e+00	9.990534e-01	9.981278e-01	9.978295e-01	9.977252e-01	9.976690e-01	9.976136e-01	9.975358e-01	9.974187e-01	9.972563e-01	9.970516e-01	9.968082e-01	9.965187e-01	9.961585e-01	9.956848e-01	9.950301e-01	9.941262e-01	9.929167e-01	9.913770e-01	9.896027e-01	9.879696e-01	9.869888e-01	9.866774e-01	9.866548e-01	9.869202e-01	9.879859e-01	9.903267e-01	9.940448e-01	9.988896e-01	1.004547e+00	1.010791e+00	1.017286e+00	1.022981e+00	1.026878e+00	1.030250e+00	1.035599e+00	1.041310e+00	1.046644e+00	9.979691e-01	9.980194e-01	9.979585e-01	9.979539e-01	9.979473e-01	9.979427e-01	9.979367e-01	9.979265e-01	9.979129e-01	9.978973e-01	9.978794e-01	9.978590e-01	9.978359e-01	9.978100e-01	9.977809e-01	9.977483e-01	9.977119e-01	9.976736e-01	9.976318e-01	9.975839e-01	9.975330e-01	9.974719e-01	9.974049e-01	9.973322e-01	9.972524e-01	9.971687e-01	9.970761e-01	9.969733e-01	9.968581e-01	9.967274e-01	9.965789e-01	9.964101e-01	9.962189e-01	9.960001e-01	9.957442e-01	9.954290e-01	9.950176e-01	9.944560e-01	9.936828e-01	9.926427e-01	9.913003e-01	9.896761e-01	9.879941e-01	9.867320e-01	9.861739e-01	9.860715e-01	9.861327e-01	9.866216e-01	9.880421e-01	9.907080e-01	9.945575e-01	9.993253e-01	1.004836e+00	1.010948e+00	1.017026e+00	1.021656e+00	1.023836e+00	1.024273e+00	1.024160e+00	1.022962e+00	1.019419e+00	1.013427e+00	1.006879e+00	1.002005e+00	9.993665e-01	9.982510e-01	9.978509e-01	9.977073e-01	9.976362e-01	9.975746e-01	9.974947e-01	9.973784e-01	9.972171e-01	9.970112e-01	9.967607e-01	9.964547e-01	9.960664e-01	9.955462e-01	9.948324e-01	9.938611e-01	9.925832e-01	9.909938e-01	9.892650e-01	9.878667e-01	9.871845e-01	9.870258e-01	9.870572e-01	9.874437e-01	9.886976e-01	9.911885e-01	9.949141e-01	9.996215e-01	1.005123e+00	1.011311e+00	1.017684e+00	1.023018e+00	1.026592e+00	1.029884e+00	1.034926e+00	1.039967e+00	1.044741e+00	9.979565e-01	9.979980e-01	9.979505e-01	9.979440e-01	9.979359e-01	9.979303e-01	9.979237e-01	9.979138e-01	9.979002e-01	9.978850e-01	9.978676e-01	9.978478e-01	9.978254e-01	9.978002e-01	9.977710e-01	9.977374e-01	9.976991e-01	9.976586e-01	9.976157e-01	9.975674e-01	9.975159e-01	9.974542e-01	9.973862e-01	9.973124e-01	9.972317e-01	9.971468e-01	9.970517e-01	9.969454e-01	9.968260e-01	9.966911e-01	9.965381e-01	9.963641e-01	9.961665e-01	9.959390e-01	9.956687e-01	9.953294e-01	9.948789e-01	9.942607e-01	9.934155e-01	9.922934e-01	9.908706e-01	9.892266e-01	9.877101e-01	9.867917e-01	9.864973e-01	9.864816e-01	9.866268e-01	9.872966e-01	9.889179e-01	9.916950e-01	9.954985e-01	1.000126e+00	1.005515e+00	1.011507e+00	1.017282e+00	1.021368e+00	1.023090e+00	1.023374e+00	1.023194e+00	1.021880e+00	1.018393e+00	1.012898e+00	1.007046e+00	1.002494e+00	9.997421e-01	9.984117e-01	9.978824e-01	9.976872e-01	9.975969e-01	9.975277e-01	9.974456e-01	9.973298e-01	9.971693e-01	9.969610e-01	9.967011e-01	9.963744e-01	9.959478e-01	9.953718e-01	9.945864e-01	9.935340e-01	9.921708e-01	9.905366e-01	9.889292e-01	9.878526e-01	9.874589e-01	9.874199e-01	9.875194e-01	9.880817e-01	9.895523e-01	9.921935e-01	9.959090e-01	1.000480e+00	1.005845e+00	1.011923e+00	1.018051e+00	1.022955e+00	1.026235e+00	1.029464e+00	1.034134e+00	1.038431e+00	1.042579e+00	9.979446e-01	9.979766e-01	9.979405e-01	9.979335e-01	9.979237e-01	9.979168e-01	9.979089e-01	9.978986e-01	9.978848e-01	9.978695e-01	9.978525e-01	9.978329e-01	9.978107e-01	9.977849e-01	9.977550e-01	9.977209e-01	9.976835e-01	9.976409e-01	9.975969e-01	9.975502e-01	9.974967e-01	9.974344e-01	9.973653e-01	9.972892e-01	9.972092e-01	9.971214e-01	9.970225e-01	9.969119e-01	9.967874e-01	9.966471e-01	9.964889e-01	9.963088e-01	9.961053e-01	9.958679e-01	9.955792e-01	9.952079e-01	9.947067e-01	9.940172e-01	9.930829e-01	9.918595e-01	9.903539e-01	9.887530e-01	9.875038e-01	9.869664e-01	9.868817e-01	9.869214e-01	9.872110e-01	9.881030e-01	9.899336e-01	9.928019e-01	9.965518e-01	1.001051e+00	1.006308e+00	1.012092e+00	1.017434e+00	1.020940e+00	1.022217e+00	1.022373e+00	1.022118e+00	1.020675e+00	1.017291e+00	1.012350e+00	1.007213e+00	1.003010e+00	1.000169e+00	9.986093e-01	9.979258e-01	9.976658e-01	9.975524e-01	9.974738e-01	9.973879e-01	9.972720e-01	9.971117e-01	9.968992e-01	9.966258e-01	9.962714e-01	9.957981e-01	9.951543e-01	9.942823e-01	9.931268e-01	9.916667e-01	9.900300e-01	9.886465e-01	9.879678e-01	9.878175e-01	9.878402e-01	9.880676e-01	9.888512e-01	9.905568e-01	9.933297e-01	9.970226e-01	1.001470e+00	1.006690e+00	1.012575e+00	1.018342e+00	1.022765e+00	1.025810e+00	1.028974e+00	1.033226e+00	1.036757e+00	1.040238e+00	9.979313e-01	9.979545e-01	9.979275e-01	9.979212e-01	9.979110e-01	9.979021e-01	9.978932e-01	9.978828e-01	9.978688e-01	9.978536e-01	9.978364e-01	9.978165e-01	9.977931e-01	9.977665e-01	9.977353e-01	9.976998e-01	9.976605e-01	9.976184e-01	9.975732e-01	9.975249e-01	9.974714e-01	9.974088e-01	9.973385e-01	9.972635e-01	9.971815e-01	9.970905e-01	9.969887e-01	9.968737e-01	9.967441e-01	9.965973e-01	9.964330e-01	9.962467e-01	9.960351e-01	9.957849e-01	9.954716e-01	9.950582e-01	9.944917e-01	9.937133e-01	9.926698e-01	9.913307e-01	9.897569e-01	9.882941e-01	9.874703e-01	9.872577e-01	9.872756e-01	9.874154e-01	9.879106e-01	9.890577e-01	9.910891e-01	9.940226e-01	9.977207e-01	1.002102e+00	1.007176e+00	1.012638e+00	1.017430e+00	1.020310e+00	1.021218e+00	1.021282e+00	1.020922e+00	1.019373e+00	1.016153e+00	1.011812e+00	1.007384e+00	1.003537e+00	1.000629e+00	9.988366e-01	9.979819e-01	9.976447e-01	9.975037e-01	9.974152e-01	9.973248e-01	9.972065e-01	9.970441e-01	9.968243e-01	9.965322e-01	9.961413e-01	9.956095e-01	9.948831e-01	9.939050e-01	9.926266e-01	9.910713e-01	9.895231e-01	9.885133e-01	9.881988e-01	9.881998e-01	9.883040e-01	9.887255e-01	9.897739e-01	9.917124e-01	9.945857e-01	9.982500e-01	1.002589e+00	1.007624e+00	1.013207e+00	1.018499e+00	1.022447e+00	1.025293e+00	1.028407e+00	1.032216e+00	1.034997e+00	1.037797e+00	9.979159e-01	9.979318e-01	9.979113e-01	9.979055e-01	9.978951e-01	9.978849e-01	9.978754e-01	9.978654e-01	9.978516e-01	9.978363e-01	9.978188e-01	9.977982e-01	9.977739e-01	9.977454e-01	9.977128e-01	9.976757e-01	9.976351e-01	9.975920e-01	9.975452e-01	9.974949e-01	9.974398e-01	9.973761e-01	9.973061e-01	9.972297e-01	9.971453e-01	9.970526e-01	9.969476e-01	9.968285e-01	9.966936e-01	9.965418e-01	9.963708e-01	9.961778e-01	9.959560e-01	9.956865e-01	9.953416e-01	9.948723e-01	9.942230e-01	9.933367e-01	9.921609e-01	9.906895e-01	9.891183e-01	9.879820e-01	9.876114e-01	9.875967e-01	9.876854e-01	9.880001e-01	9.887496e-01	9.901668e-01	9.923787e-01	9.953512e-01	9.989963e-01	1.003261e+00	1.008077e+00	1.013085e+00	1.017235e+00	1.019507e+00	1.020102e+00	1.020093e+00	1.019620e+00	1.018003e+00	1.015028e+00	1.011320e+00	1.007563e+00	1.004060e+00	1.001103e+00	9.990818e-01	9.980450e-01	9.976229e-01	9.974500e-01	9.973493e-01	9.972549e-01	9.971345e-01	9.969675e-01	9.967365e-01	9.964184e-01	9.959798e-01	9.953742e-01	9.945461e-01	9.934362e-01	9.920125e-01	9.904001e-01	9.891015e-01	9.885847e-01	9.885249e-01	9.885870e-01	9.888496e-01	9.895235e-01	9.908619e-01	9.930149e-01	9.959547e-01	9.995788e-01	1.003817e+00	1.008616e+00	1.013758e+00	1.018471e+00	1.021944e+00	1.024677e+00	1.027755e+00	1.031116e+00	1.033215e+00	1.035361e+00	9.978982e-01	9.979086e-01	9.978915e-01	9.978862e-01	9.978755e-01	9.978647e-01	9.978551e-01	9.978455e-01	9.978320e-01	9.978163e-01	9.977982e-01	9.977766e-01	9.977511e-01	9.977214e-01	9.976876e-01	9.976495e-01	9.976078e-01	9.975634e-01	9.975155e-01	9.974632e-01	9.974055e-01	9.973411e-01	9.972701e-01	9.971904e-01	9.971034e-01	9.970070e-01	9.968980e-01	9.967743e-01	9.966344e-01	9.964772e-01	9.963005e-01	9.960983e-01	9.958629e-01	9.955696e-01	9.951791e-01	9.946388e-01	9.938893e-01	9.928705e-01	9.915312e-01	9.899310e-01	9.885402e-01	9.879442e-01	9.878598e-01	9.879248e-01	9.881596e-01	9.887088e-01	9.897473e-01	9.914301e-01	9.937944e-01	9.967831e-01	1.000359e+00	1.004484e+00	1.008965e+00	1.013357e+00	1.016821e+00	1.018529e+00	1.018880e+00	1.018805e+00	1.018233e+00	1.016606e+00	1.013964e+00	1.010899e+00	1.007758e+00	1.004569e+00	1.001574e+00	9.993307e-01	9.981073e-01	9.975964e-01	9.973902e-01	9.972764e-01	9.971753e-01	9.970508e-01	9.968771e-01	9.966293e-01	9.962769e-01	9.957782e-01	9.950811e-01	9.941262e-01	9.928497e-01	9.912647e-01	9.897539e-01	9.889486e-01	9.887912e-01	9.888394e-01	9.890289e-01	9.895159e-01	9.904863e-01	9.921158e-01	9.944542e-01	9.974328e-01	1.000996e+00	1.005111e+00	1.009618e+00	1.014169e+00	1.018216e+00	1.021274e+00	1.023953e+00	1.027007e+00	1.029943e+00	1.031476e+00	1.033035e+00	9.978777e-01	9.978838e-01	9.978672e-01	9.978629e-01	9.978522e-01	9.978415e-01	9.978320e-01	9.978230e-01	9.978097e-01	9.977929e-01	9.977740e-01	9.977512e-01	9.977245e-01	9.976937e-01	9.976589e-01	9.976206e-01	9.975784e-01	9.975326e-01	9.974828e-01	9.974292e-01	9.973695e-01	9.973031e-01	9.972294e-01	9.971482e-01	9.970572e-01	9.969558e-01	9.968416e-01	9.967119e-01	9.965655e-01	9.964020e-01	9.962165e-01	9.960041e-01	9.957489e-01	9.954202e-01	9.949718e-01	9.943442e-01	9.934723e-01	9.922806e-01	9.907406e-01	9.891615e-01	9.882518e-01	9.880770e-01	9.881155e-01	9.882968e-01	9.887438e-01	9.895745e-01	9.909173e-01	9.928420e-01	9.953239e-01	9.983080e-01	1.001786e+00	1.005717e+00	1.009782e+00	1.013420e+00	1.016109e+00	1.017374e+00	1.017557e+00	1.017427e+00	1.016782e+00	1.015235e+00	1.013013e+00	1.010574e+00	1.007975e+00	1.005057e+00	1.002025e+00	9.995727e-01	9.981669e-01	9.975649e-01	9.973232e-01	9.971948e-01	9.970862e-01	9.969552e-01	9.967704e-01	9.964986e-01	9.960992e-01	9.955230e-01	9.947110e-01	9.935875e-01	9.920969e-01	9.904425e-01	9.893198e-01	9.890298e-01	9.890420e-01	9.891844e-01	9.895734e-01	9.903407e-01	9.916305e-01	9.935306e-01	9.960169e-01	9.990103e-01	1.002484e+00	1.006418e+00	1.010561e+00	1.014410e+00	1.017669e+00	1.020405e+00	1.023124e+00	1.026155e+00	1.028733e+00	1.029840e+00	1.030918e+00	9.978545e-01	9.978580e-01	9.978396e-01	9.978363e-01	9.978257e-01	9.978153e-01	9.978058e-01	9.977976e-01	9.977837e-01	9.977663e-01	9.977455e-01	9.977215e-01	9.976937e-01	9.976620e-01	9.976266e-01	9.975874e-01	9.975439e-01	9.974962e-01	9.974441e-01	9.973874e-01	9.973255e-01	9.972589e-01	9.971840e-01	9.970998e-01	9.970049e-01	9.968980e-01	9.967773e-01	9.966410e-01	9.964871e-01	9.963148e-01	9.961207e-01	9.958928e-01	9.956094e-01	9.952328e-01	9.947093e-01	9.939715e-01	9.929331e-01	9.915073e-01	9.898267e-01	9.886051e-01	9.882640e-01	9.882596e-01	9.883919e-01	9.887637e-01	9.894777e-01	9.906242e-01	9.922656e-01	9.943942e-01	9.969546e-01	9.999110e-01	1.003255e+00	1.006889e+00	1.010425e+00	1.013260e+00	1.015129e+00	1.016034e+00	1.016147e+00	1.015964e+00	1.015306e+00	1.013952e+00	1.012207e+00	1.010350e+00	1.008209e+00	1.005515e+00	1.002438e+00	9.997951e-01	9.982192e-01	9.975290e-01	9.972505e-01	9.971056e-01	9.969869e-01	9.968456e-01	9.966431e-01	9.963363e-01	9.958744e-01	9.951978e-01	9.942282e-01	9.928696e-01	9.911772e-01	9.897656e-01	9.892419e-01	9.892005e-01	9.892970e-01	9.896148e-01	9.902647e-01	9.913541e-01	9.929632e-01	9.950976e-01	9.976900e-01	1.000673e+00	1.004025e+00	1.007685e+00	1.011333e+00	1.014410e+00	1.016852e+00	1.019296e+00	1.022188e+00	1.025204e+00	1.027519e+00	1.028372e+00	1.029108e+00	9.978291e-01	9.978313e-01	9.978089e-01	9.978071e-01	9.977964e-01	9.977862e-01	9.977762e-01	9.977681e-01	9.977537e-01	9.977350e-01	9.977130e-01	9.976878e-01	9.976590e-01	9.976266e-01	9.975908e-01	9.975505e-01	9.975064e-01	9.974568e-01	9.974025e-01	9.973432e-01	9.972783e-01	9.972094e-01	9.971323e-01	9.970454e-01	9.969465e-01	9.968335e-01	9.967050e-01	9.965601e-01	9.963982e-01	9.962173e-01	9.960104e-01	9.957605e-01	9.954395e-01	9.950001e-01	9.943794e-01	9.934887e-01	9.922060e-01	9.905309e-01	9.890373e-01	9.884255e-01	9.883714e-01	9.884508e-01	9.887444e-01	9.893688e-01	9.903970e-01	9.918718e-01	9.937847e-01	9.960719e-01	9.986738e-01	1.001572e+00	1.004729e+00	1.007939e+00	1.010764e+00	1.012817e+00	1.013925e+00	1.014494e+00	1.014641e+00	1.014446e+00	1.013863e+00	1.012822e+00	1.011578e+00	1.010224e+00	1.008456e+00	1.005928e+00	1.002799e+00	9.999842e-01	9.982579e-01	9.974862e-01	9.971710e-01	9.970080e-01	9.968764e-01	9.967199e-01	9.964910e-01	9.961354e-01	9.955896e-01	9.947728e-01	9.935692e-01	9.919277e-01	9.902804e-01	9.894463e-01	9.893231e-01	9.893798e-01	9.896181e-01	9.901767e-01	9.911416e-01	9.925731e-01	9.944796e-01	9.968022e-01	9.994593e-01	1.002403e+00	1.005584e+00	1.008848e+00	1.011825e+00	1.014148e+00	1.015833e+00	1.017964e+00	1.021088e+00	1.024170e+00	1.026359e+00	1.027138e+00	1.027681e+00	9.978013e-01	9.978031e-01	9.977752e-01	9.977759e-01	9.977643e-01	9.977535e-01	9.977426e-01	9.977339e-01	9.977193e-01	9.976995e-01	9.976759e-01	9.976497e-01	9.976207e-01	9.975874e-01	9.975505e-01	9.975100e-01	9.974642e-01	9.974131e-01	9.973563