# vtk DataFile Version 3.0
vtk output
ASCII
DATASET STRUCTURED_GRID
DIMENSIONS 101 101 1
POINTS 10201 double
0.000000e+00	0.000000e+00	0.0	1.000000e-02	0.000000e+00	0.0	2.000000e-02	0.000000e+00	0.0	3.000000e-02	0.000000e+00	0.0	4.000000e-02	0.000000e+00	0.0	5.000000e-02	0.000000e+00	0.0	6.000000e-02	0.000000e+00	0.0	7.000000e-02	0.000000e+00	0.0	8.000000e-02	0.000000e+00	0.0	9.000000e-02	0.000000e+00	0.0	1.000000e-01	0.000000e+00	0.0	1.100000e-01	0.000000e+00	0.0	1.200000e-01	0.000000e+00	0.0	1.300000e-01	0.000000e+00	0.0	1.400000e-01	0.000000e+00	0.0	1.500000e-01	0.000000e+00	0.0	1.600000e-01	0.000000e+00	0.0	1.700000e-01	0.000000e+00	0.0	1.800000e-01	0.000000e+00	0.0	1.900000e-01	0.000000e+00	0.0	2.000000e-01	0.000000e+00	0.0	2.100000e-01	0.000000e+00	0.0	2.200000e-01	0.000000e+00	0.0	2.300000e-01	0.000000e+00	0.0	2.400000e-01	0.000000e+00	0.0	2.500000e-01	0.000000e+00	0.0	2.600000e-01	0.000000e+00	0.0	2.700000e-01	0.000000e+00	0.0	2.800000e-01	0.000000e+00	0.0	2.900000e-01	0.000000e+00	0.0	3.000000e-01	0.000000e+00	0.0	3.100000e-01	0.000000e+00	0.0	3.200000e-01	0.000000e+00	0.0	3.300000e-01	0.000000e+00	0.0	3.400000e-01	0.000000e+00	0.0	3.500000e-01	0.000000e+00	0.0	3.600000e-01	0.000000e+00	0.0	3.700000e-01	0.000000e+00	0.0	3.800000e-01	0.000000e+00	0.0	3.900000e-01	0.000000e+00	0.0	4.000000e-01	0.000000e+00	0.0	4.100000e-01	0.000000e+00	0.0	4.200000e-01	0.000000e+00	0.0	4.300000e-01	0.000000e+00	0.0	4.400000e-01	0.000000e+00	0.0	4.500000e-01	0.000000e+00	0.0	4.600000e-01	0.000000e+00	0.0	4.700000e-01	0.000000e+00	0.0	4.800000e-01	0.000000e+00	0.0	4.900000e-01	0.000000e+00	0.0	5.000000e-01	0.000000e+00	0.0	5.100000e-01	0.000000e+00	0.0	5.200000e-01	0.000000e+00	0.0	5.300000e-01	0.000000e+00	0.0	5.400000e-01	0.000000e+00	0.0	5.500000e-01	0.000000e+00	0.0	5.600000e-01	0.000000e+00	0.0	5.700000e-01	0.000000e+00	0.0	5.800000e-01	0.000000e+00	0.0	5.900000e-01	0.000000e+00	0.0	6.000000e-01	0.000000e+00	0.0	6.100000e-01	0.000000e+00	0.0	6.200000e-01	0.000000e+00	0.0	6.300000e-01	0.000000e+00	0.0	6.400000e-01	0.000000e+00	0.0	6.500000e-01	0.000000e+00	0.0	6.600000e-01	0.000000e+00	0.0	6.700000e-01	0.000000e+00	0.0	6.800000e-01	0.000000e+00	0.0	6.900000e-01	0.000000e+00	0.0	7.000000e-01	0.000000e+00	0.0	7.100000e-01	0.000000e+00	0.0	7.200000e-01	0.000000e+00	0.0	7.300000e-01	0.000000e+00	0.0	7.400000e-01	0.000000e+00	0.0	7.500000e-01	0.000000e+00	0.0	7.600000e-01	0.000000e+00	0.0	7.700000e-01	0.000000e+00	0.0	7.800000e-01	0.000000e+00	0.0	7.900000e-01	0.000000e+00	0.0	8.000000e-01	0.000000e+00	0.0	8.100000e-01	0.000000e+00	0.0	8.200000e-01	0.000000e+00	0.0	8.300000e-01	0.000000e+00	0.0	8.400000e-01	0.000000e+00	0.0	8.500000e-01	0.000000e+00	0.0	8.600000e-01	0.000000e+00	0.0	8.700000e-01	0.000000e+00	0.0	8.800000e-01	0.000000e+00	0.0	8.900000e-01	0.000000e+00	0.0	9.000000e-01	0.000000e+00	0.0	9.100000e-01	0.000000e+00	0.0	9.200000e-01	0.000000e+00	0.0	9.300000e-01	0.000000e+00	0.0	9.400000e-01	0.000000e+00	0.0	9.500000e-01	0.000000e+00	0.0	9.600000e-01	0.000000e+00	0.0	9.700000e-01	0.000000e+00	0.0	9.800000e-01	0.000000e+00	0.0	9.900000e-01	0.000000e+00	0.0	1.000000e+00	0.000000e+00	0.0	0.000000e+00	1.000000e-02	0.0	1.000000e-02	1.000000e-02	0.0	2.000000e-02	1.000000e-02	0.0	3.000000e-02	1.000000e-02	0.0	4.000000e-02	1.000000e-02	0.0	5.000000e-02	1.000000e-02	0.0	6.000000e-02	1.000000e-02	0.0	7.000000e-02	1.000000e-02	0.0	8.000000e-02	1.000000e-02	0.0	9.000000e-02	1.000000e-02	0.0	1.000000e-01	1.000000e-02	0.0	1.100000e-01	1.000000e-02	0.0	1.200000e-01	1.000000e-02	0.0	1.300000e-01	1.000000e-02	0.0	1.400000e-01	1.000000e-02	0.0	1.500000e-01	1.000000e-02	0.0	1.600000e-01	1.000000e-02	0.0	1.700000e-01	1.000000e-02	0.0	1.800000e-01	1.000000e-02	0.0	1.900000e-01	1.000000e-02	0.0	2.000000e-01	1.000000e-02	0.0	2.100000e-01	1.000000e-02	0.0	2.200000e-01	1.000000e-02	0.0	2.300000e-01	1.000000e-02	0.0	2.400000e-01	1.000000e-02	0.0	2.500000e-01	1.000000e-02	0.0	2.600000e-01	1.000000e-02	0.0	2.700000e-01	1.000000e-02	0.0	2.800000e-01	1.000000e-02	0.0	2.900000e-01	1.000000e-02	0.0	3.000000e-01	1.000000e-02	0.0	3.100000e-01	1.000000e-02	0.0	3.200000e-01	1.000000e-02	0.0	3.300000e-01	1.000000e-02	0.0	3.400000e-01	1.000000e-02	0.0	3.500000e-01	1.000000e-02	0.0	3.600000e-01	1.000000e-02	0.0	3.700000e-01	1.000000e-02	0.0	3.800000e-01	1.000000e-02	0.0	3.900000e-01	1.000000e-02	0.0	4.000000e-01	1.000000e-02	0.0	4.100000e-01	1.000000e-02	0.0	4.200000e-01	1.000000e-02	0.0	4.300000e-01	1.000000e-02	0.0	4.400000e-01	1.000000e-02	0.0	4.500000e-01	1.000000e-02	0.0	4.600000e-01	1.000000e-02	0.0	4.700000e-01	1.000000e-02	0.0	4.800000e-01	1.000000e-02	0.0	4.900000e-01	1.000000e-02	0.0	5.000000e-01	1.000000e-02	0.0	5.100000e-01	1.000000e-02	0.0	5.200000e-01	1.000000e-02	0.0	5.300000e-01	1.000000e-02	0.0	5.400000e-01	1.000000e-02	0.0	5.500000e-01	1.000000e-02	0.0	5.600000e-01	1.000000e-02	0.0	5.700000e-01	1.000000e-02	0.0	5.800000e-01	1.000000e-02	0.0	5.900000e-01	1.000000e-02	0.0	6.000000e-01	1.000000e-02	0.0	6.100000e-01	1.000000e-02	0.0	6.200000e-01	1.000000e-02	0.0	6.300000e-01	1.000000e-02	0.0	6.400000e-01	1.000000e-02	0.0	6.500000e-01	1.000000e-02	0.0	6.600000e-01	1.000000e-02	0.0	6.700000e-01	1.000000e-02	0.0	6.800000e-01	1.000000e-02	0.0	6.900000e-01	1.000000e-02	0.0	7.000000e-01	1.000000e-02	0.0	7.100000e-01	1.000000e-02	0.0	7.200000e-01	1.000000e-02	0.0	7.300000e-01	1.000000e-02	0.0	7.400000e-01	1.000000e-02	0.0	7.500000e-01	1.000000e-02	0.0	7.600000e-01	1.000000e-02	0.0	7.700000e-01	1.000000e-02	0.0	7.800000e-01	1.000000e-02	0.0	7.900000e-01	1.000000e-02	0.0	8.000000e-01	1.000000e-02	0.0	8.100000e-01	1.000000e-02	0.0	8.200000e-01	1.000000e-02	0.0	8.300000e-01	1.000000e-02	0.0	8.400000e-01	1.000000e-02	0.0	8.500000e-01	1.000000e-02	0.0	8.600000e-01	1.000000e-02	0.0	8.700000e-01	1.000000e-02	0.0	8.800000e-01	1.000000e-02	0.0	8.900000e-01	1.000000e-02	0.0	9.000000e-01	1.000000e-02	0.0	9.100000e-01	1.000000e-02	0.0	9.200000e-01	1.000000e-02	0.0	9.300000e-01	1.000000e-02	0.0	9.400000e-01	1.000000e-02	0.0	9.500000e-01	1.000000e-02	0.0	9.600000e-01	1.000000e-02	0.0	9.700000e-01	1.000000e-02	0.0	9.800000e-01	1.000000e-02	0.0	9.900000e-01	1.000000e-02	0.0	1.000000e+00	1.000000e-02	0.0	0.000000e+00	2.000000e-02	0.0	1.000000e-02	2.000000e-02	0.0	2.000000e-02	2.000000e-02	0.0	3.000000e-02	2.000000e-02	0.0	4.000000e-02	2.000000e-02	0.0	5.000000e-02	2.000000e-02	0.0	6.000000e-02	2.000000e-02	0.0	7.000000e-02	2.000000e-02	0.0	8.000000e-02	2.000000e-02	0.0	9.000000e-02	2.000000e-02	0.0	1.000000e-01	2.000000e-02	0.0	1.100000e-01	2.000000e-02	0.0	1.200000e-01	2.000000e-02	0.0	1.300000e-01	2.000000e-02	0.0	1.400000e-01	2.000000e-02	0.0	1.500000e-01	2.000000e-02	0.0	1.600000e-01	2.000000e-02	0.0	1.700000e-01	2.000000e-02	0.0	1.800000e-01	2.000000e-02	0.0	1.900000e-01	2.000000e-02	0.0	2.000000e-01	2.000000e-02	0.0	2.100000e-01	2.000000e-02	0.0	2.200000e-01	2.000000e-02	0.0	2.300000e-01	2.000000e-02	0.0	2.400000e-01	2.000000e-02	0.0	2.500000e-01	2.000000e-02	0.0	2.600000e-01	2.000000e-02	0.0	2.700000e-01	2.000000e-02	0.0	2.800000e-01	2.000000e-02	0.0	2.900000e-01	2.000000e-02	0.0	3.000000e-01	2.000000e-02	0.0	3.100000e-01	2.000000e-02	0.0	3.200000e-01	2.000000e-02	0.0	3.300000e-01	2.000000e-02	0.0	3.400000e-01	2.000000e-02	0.0	3.500000e-01	2.000000e-02	0.0	3.600000e-01	2.000000e-02	0.0	3.700000e-01	2.000000e-02	0.0	3.800000e-01	2.000000e-02	0.0	3.900000e-01	2.000000e-02	0.0	4.000000e-01	2.000000e-02	0.0	4.100000e-01	2.000000e-02	0.0	4.200000e-01	2.000000e-02	0.0	4.300000e-01	2.000000e-02	0.0	4.400000e-01	2.000000e-02	0.0	4.500000e-01	2.000000e-02	0.0	4.600000e-01	2.000000e-02	0.0	4.700000e-01	2.000000e-02	0.0	4.800000e-01	2.000000e-02	0.0	4.900000e-01	2.000000e-02	0.0	5.000000e-01	2.000000e-02	0.0	5.100000e-01	2.000000e-02	0.0	5.200000e-01	2.000000e-02	0.0	5.300000e-01	2.000000e-02	0.0	5.400000e-01	2.000000e-02	0.0	5.500000e-01	2.000000e-02	0.0	5.600000e-01	2.000000e-02	0.0	5.700000e-01	2.000000e-02	0.0	5.800000e-01	2.000000e-02	0.0	5.900000e-01	2.000000e-02	0.0	6.000000e-01	2.000000e-02	0.0	6.100000e-01	2.000000e-02	0.0	6.200000e-01	2.000000e-02	0.0	6.300000e-01	2.000000e-02	0.0	6.400000e-01	2.000000e-02	0.0	6.500000e-01	2.000000e-02	0.0	6.600000e-01	2.000000e-02	0.0	6.700000e-01	2.000000e-02	0.0	6.800000e-01	2.000000e-02	0.0	6.900000e-01	2.000000e-02	0.0	7.000000e-01	2.000000e-02	0.0	7.100000e-01	2.000000e-02	0.0	7.200000e-01	2.000000e-02	0.0	7.300000e-01	2.000000e-02	0.0	7.400000e-01	2.000000e-02	0.0	7.500000e-01	2.000000e-02	0.0	7.600000e-01	2.000000e-02	0.0	7.700000e-01	2.000000e-02	0.0	7.800000e-01	2.000000e-02	0.0	7.900000e-01	2.000000e-02	0.0	8.000000e-01	2.000000e-02	0.0	8.100000e-01	2.000000e-02	0.0	8.200000e-01	2.000000e-02	0.0	8.300000e-01	2.000000e-02	0.0	8.400000e-01	2.000000e-02	0.0	8.500000e-01	2.000000e-02	0.0	8.600000e-01	2.000000e-02	0.0	8.700000e-01	2.000000e-02	0.0	8.800000e-01	2.000000e-02	0.0	8.900000e-01	2.000000e-02	0.0	9.000000e-01	2.000000e-02	0.0	9.100000e-01	2.000000e-02	0.0	9.200000e-01	2.000000e-02	0.0	9.300000e-01	2.000000e-02	0.0	9.400000e-01	2.000000e-02	0.0	9.500000e-01	2.000000e-02	0.0	9.600000e-01	2.000000e-02	0.0	9.700000e-01	2.000000e-02	0.0	9.800000e-01	2.000000e-02	0.0	9.900000e-01	2.000000e-02	0.0	1.000000e+00	2.000000e-02	0.0	0.000000e+00	3.000000e-02	0.0	1.000000e-02	3.000000e-02	0.0	2.000000e-02	3.000000e-02	0.0	3.000000e-02	3.000000e-02	0.0	4.000000e-02	3.000000e-02	0.0	5.000000e-02	3.000000e-02	0.0	6.000000e-02	3.000000e-02	0.0	7.000000e-02	3.000000e-02	0.0	8.000000e-02	3.000000e-02	0.0	9.000000e-02	3.000000e-02	0.0	1.000000e-01	3.000000e-02	0.0	1.100000e-01	3.000000e-02	0.0	1.200000e-01	3.000000e-02	0.0	1.300000e-01	3.000000e-02	0.0	1.400000e-01	3.000000e-02	0.0	1.500000e-01	3.000000e-02	0.0	1.600000e-01	3.000000e-02	0.0	1.700000e-01	3.000000e-02	0.0	1.800000e-01	3.000000e-02	0.0	1.900000e-01	3.000000e-02	0.0	2.000000e-01	3.000000e-02	0.0	2.100000e-01	3.000000e-02	0.0	2.200000e-01	3.000000e-02	0.0	2.300000e-01	3.000000e-02	0.0	2.400000e-01	3.000000e-02	0.0	2.500000e-01	3.000000e-02	0.0	2.600000e-01	3.000000
[...]
POINT_DATA 10201

SCALARS Height double 1
LOOKUP_TABLE default
1.134391e+00	1.132336e+00	1.118589e+00	1.095308e+00	1.064527e+00	1.033600e+00	1.010084e+00	9.951624e-01	9.859284e-01	9.795758e-01	9.749843e-01	9.718030e-01	9.698008e-01	9.687381e-01	9.682007e-01	9.680280e-01	9.680167e-01	9.680284e-01	9.680260e-01	9.680395e-01	9.680494e-01	9.680395e-01	9.680258e-01	9.680281e-01	9.680171e-01	9.680319e-01	9.682116e-01	9.687530e-01	9.698057e-01	9.717826e-01	9.749416e-01	9.795198e-01	9.856029e-01	9.932334e-01	1.002603e+00	1.014039e+00	1.027664e+00	1.042373e+00	1.055223e+00	1.063488e+00	1.067358e+00	1.067916e+00	1.065255e+00	1.055884e+00	1.038292e+00	1.018903e+00	1.006714e+00	1.002055e+00	1.000683e+00	1.000258e+00	1.000098e+00	1.000033e+00	1.000010e+00	1.000003e+00	1.000001e+00	1.000000e+00	1.000000e+00	1.000000e+00	1.000000e+00	1.000000e+00	1.000000e+00	1.000000e+00	1.000000e+00	1.000000e+00	1.000000e+00	1.000000e+00	1.000000e+00	1.000000e+00	1.000000e+00	1.000000e+00	1.000000e+00	1.000000e+00	1.000000e+00	1.000000e+00	1.000000e+00	1.000000e+00	1.000000e+00	1.000000e+00	1.000000e+00	1.000000e+00	1.000000e+00	1.000000e+00	1.000000e+00	1.000000e+00	1.000000e+00	1.000000e+00	1.000000e+00	1.000000e+00	1.000000e+00	1.000000e+00	1.000000e+00	1.000000e+00	1.000000e+00	1.000000e+00	1.000000e+00	1.000000e+00	1.000000e+00	1.000000e+00	1.000000e+00	1.000000e+00	1.000000e+00	1.132336e+00	1.130363e+00	1.116217e+00	1.093648e+00	1.065520e+00	1.037264e+00	1.014756e+00	9.994817e-01	9.897977e-01	9.833184e-01	9.786600e-01	9.752489e-01	9.728393e-01	9.713125e-01	9.704372e-01	9.699134e-01	9.696518e-01	9.694861e-01	9.693690e-01	9.693284e-01	9.693267e-01	9.693284e-01	9.693688e-01	9.694857e-01	9.696524e-01	9.699178e-01	9.704478e-01	9.713252e-01	9.728418e-01	9.752327e-01	9.786450e-01	9.833205e-01	9.894846e-01	9.972109e-01	1.006593e+00	1.017711e+00	1.030327e+00	1.043421e+00	1.054991e+00	1.062877e+00	1.066339e+00	1.066268e+00	1.062616e+00	1.052193e+00	1.035948e+00	1.018650e+00	1.006904e+00	1.001993e+00	1.000611e+00	1.000226e+00	1.000087e+00	1.000030e+00	1.000009e+00	1.000002e+00	1.000001e+00	1.000000e+00	1.000000e+00	1.000000e+00	1.000000e+00	1.000000e+00	1.000000e+00	1.000000e+00	1.000000e+00	1.000000e+00	1.000000e+00	1.000000e+00	1.000000e+00	1.000000e+00	1.000000e+00	1.000000e+00	1.000000e+00	1.000000e+00	1.000000e+00	1.000000e+00	1.000000e+00	1.000000e+00	1.000000e+00	1.000000e+00	1.000000e+00	1.000000e+00	1.000000e+00	1.000000e+00	1.000000e+00	1.000000e+00	1.000000e+00	1.000000e+00	1.000000e+00	1.000000e+00	1.000000e+00	1.000000e+00	1.000000e+00	1.000000e+00	1.000000e+00	1.000000e+00	1.000000e+00	1.000000e+00	1.000000e+00	1.000000e+00	1.000000e+00	1.000000e+00	1.000000e+00	1.118589e+00	1.116217e+00	1.101129e+00	1.082249e+00	1.062568e+00	1.042450e+00	1.022498e+00	1.006137e+00	9.950845e-01	9.881657e-01	9.835417e-01	9.801694e-01	9.775656e-01	9.755940e-01	9.742715e-01	9.734478e-01	9.729012e-01	9.725447e-01	9.723064e-01	9.722044e-01	9.721900e-01	9.722042e-01	9.723060e-01	9.725447e-01	9.729034e-01	9.734541e-01	9.742808e-01	9.755999e-01	9.775614e-01	9.801563e-01	9.834689e-01	9.876673e-01	9.929925e-01	9.997522e-01	1.007867e+00	1.016898e+00	1.026072e+00	1.035154e+00	1.045035e+00	1.054623e+00	1.060019e+00	1.060345e+00	1.056228e+00	1.046233e+00	1.036002e+00	1.026242e+00	1.014487e+00	1.005138e+00	1.001364e+00	1.000401e+00	1.000144e+00	1.000053e+00	1.000017e+00	1.000005e+00	1.000001e+00	1.000000e+00	1.000000e+00	1.000000e+00	1.000000e+00	1.000000e+00	1.000000e+00	1.000000e+00	1.000000e+00	1.000000e+00	1.000000e+00	1.000000e+00	1.000000e+00	1.000000e+00	1.000000e+00	1.000000e+00	1.000000e+00	1.000000e+00	1.000000e+00	1.000000e+00	1.000000e+00	1.000000e+00	1.000000e+00	1.000000e+00	1.000000e+00	1.000000e+00	1.000000e+00	1.000000e+00	1.000000e+00	1.000000e+00	1.000000e+00	1.000000e+00	1.000000e+00	1.000000e+00	1.000000e+00	1.000000e+00	1.000000e+00	1.000000e+00	1.000000e+00	1.000000e+00	1.000000e+00	1.000000e+00	1.000000e+00	1.000000e+00	1.000000e+00	1.000000e+00	1.000000e+00	1.095308e+00	1.093648e+00	1.082249e+00	1.069873e+00	1.058608e+00	1.047187e+00	1.033078e+00	1.017225e+00	1.004623e+00	9.967348e-01	9.916697e-01	9.880159e-01	9.852416e-01	9.831509e-01	9.816424e-01	9.806743e-01	9.800742e-01	9.796614e-01	9.793625e-01	9.791791e-01	9.791189e-01	9.791788e-01	9.793622e-01	9.796629e-01	9.800796e-01	9.806835e-01	9.816500e-01	9.831509e-01	9.852380e-01	9.879925e-01	9.914808e-01	9.956964e-01	1.000578e+00	1.006031e+00	1.011916e+00	1.017750e+00	1.023466e+00	1.029733e+00	1.036879e+00	1.043988e+00	1.048950e+00	1.049167e+00	1.045432e+00	1.038877e+00	1.034076e+00	1.029960e+00	1.022311e+00	1.011164e+00	1.003420e+00	1.000850e+00	1.000252e+00	1.000091e+00	1.000033e+00	1.000010e+00	1.000003e+00	1.000001e+00	1.000000e+00	1.000000e+00	1.000000e+00	1.000000e+00	1.000000e+00	1.000000e+00	1.000000e+00	1.000000e+00	1.000000e+00	1.000000e+00	1.000000e+00	1.000000e+00	1.000000e+00	1.000000e+00	1.000000e+00	1.000000e+00	1.000000e+00	1.000000e+00	1.000000e+00	1.000000e+00	1.000000e+00	1.000000e+00	1.000000e+00	1.000000e+00	1.000000e+00	1.000000e+00	1.000000e+00	1.000000e+00	1.000000e+00	1.000000e+00	1.000000e+00	1.000000e+00	1.000000e+00	1.000000e+00	1.000000e+00	1.000000e+00	1.000000e+00	1.000000e+00	1.000000e+00	1.000000e+00	1.000000e+00	1.000000e+00	1.000000e+00	1.000000e+00	1.000000e+00	1.064527e+00	1.065520e+00	1.062568e+00	1.058608e+00	1.053857e+00	1.048790e+00	1.040917e+00	1.028390e+00	1.015335e+00	1.006424e+00	1.001127e+00	9.977326e-01	9.953800e-01	9.936317e-01	9.922306e-01	9.911058e-01	9.902584e-01	9.896239e-01	9.891453e-01	9.888021e-01	9.886112e-01	9.888019e-01	9.891460e-01	9.896276e-01	9.902660e-01	9.911144e-01	9.922365e-01	9.936389e-01	9.953716e-01	9.975899e-01	1.000454e+00	1.003893e+00	1.007518e+00	1.010842e+00	1.013720e+00	1.016568e+00	1.020145e+00	1.024329e+00	1.027940e+00	1.030637e+00	1.033048e+00	1.035163e+00	1.035023e+00	1.034211e+00	1.033284e+00	1.031715e+00	1.027882e+00	1.018729e+00	1.007883e+00	1.002126e+00	1.000527e+00	1.000162e+00	1.000058e+00	1.000020e+00	1.000006e+00	1.000001e+00	1.000000e+00	1.000000e+00	1.000000e+00	1.000000e+00	1.000000e+00	1.000000e+00	1.000000e+00	1.000000e+00	1.000000e+00	1.000000e+00	1.000000e+00	1.000000e+00	1.000000e+00	1.000000e+00	1.000000e+00	1.000000e+00	1.000000e+00	1.000000e+00	1.000000e+00	1.000000e+00	1.000000e+00	1.000000e+00	1.000000e+00	1.000000e+00	1.000000e+00	1.000000e+00	1.000000e+00	1.000000e+00	1.000000e+00	1.000000e+00	1.000000e+00	1.000000e+00	1.000000e+00	1.000000e+00	1.000000e+00	1.000000e+00	1.000000e+00	1.000000e+00	1.000000e+00	1.000000e+00	1.000000e+00	1.000000e+00	1.000000e+00	1.000000e+00	1.000000e+00	1.033600e+00	1.037264e+00	1.042450e+00	1.047187e+00	1.048790e+00	1.047377e+00	1.044012e+00	1.036752e+00	1.024960e+00	1.015310e+00	1.010450e+00	1.008122e+00	1.006545e+00	1.005130e+00	1.003773e+00	1.002496e+00	1.001381e+00	1.000502e+00	9.998487e-01	9.994207e-01	9.992732e-01	9.994211e-01	9.998511e-01	1.000508e+00	1.001388e+00	1.002505e+00	1.003790e+00	1.005147e+00	1.006466e+00	1.007687e+00	1.008877e+00	1.010178e+00	1.011506e+00	1.012698e+00	1.013799e+00	1.015220e+00	1.016599e+00	1.017109e+00	1.016731e+00	1.015997e+00	1.016453e+00	1.020477e+00	1.027115e+00	1.031399e+00	1.032267e+00	1.032136e+00	1.030534e+00	1.024877e+00	1.014277e+00	1.005000e+00	1.001231e+00	1.000314e+00	1.000100e+00	1.000035e+00	1.000011e+00	1.000003e+00	1.000001e+00	1.000000e+00	1.000000e+00	1.000000e+00	1.000000e+00	1.000000e+00	1.000000e+00	1.000000e+00	1.000000e+00	1.000000e+00	1.000000e+00	1.000000e+00	1.000000e+00	1.000000e+00	1.000000e+00	1.000000e+00	1.000000e+00	1.000000e+00	1.000000e+00	1.000000e+00	1.000000e+00	1.000000e+00	1.000000e+00	1.000000e+00	1.000000e+00	1.000000e+00	1.000000e+00	1.000000e+00	1.000000e+00	1.000000e+00	1.000000e+00	1.000000e+00	1.000000e+00	1.000000e+00	1.000000e+00	1.000000e+00	1.000000e+00	1.000000e+00	1.000000e+00	1.000000e+00	1.000000e+00	1.000000e+00	1.000000e+00	1.000000e+00	1.000000e+00	1.010084e+00	1.014756e+00	1.022498e+00	1.033078e+00	1.040917e+00	1.044012e+00	1.043677e+00	1.040713e+00	1.032831e+00	1.023107e+00	1.017937e+00	1.016502e+00	1.015725e+00	1.014758e+00	1.013732e+00	1.012700e+00	1.011688e+00	1.010814e+00	1.010179e+00	1.009770e+00	1.009640e+00	1.009772e+00	1.010183e+00	1.010820e+00	1.011692e+00	1.012722e+00	1.013784e+00	1.014754e+00	1.015412e+00	1.015487e+00	1.014884e+00	1.013734e+00	1.013083e+00	1.013016e+00	1.013181e+00	1.012648e+00	1.010366e+00	1.006750e+00	1.003622e+00	1.002354e+00	1.003889e+00	1.010473e+00	1.019890e+00	1.027744e+00	1.031204e+00	1.031783e+00	1.031292e+00	1.028506e+00	1.020571e+00	1.009721e+00	1.002848e+00	1.000667e+00	1.000179e+00	1.000058e+00	1.000020e+00	1.000006e+00	1.000001e+00	1.000000e+00	1.000000e+00	1.000000e+00	1.000000e+00	1.000000e+00	1.000000e+00	1.000000e+00	1.000000e+00	1.000000e+00	1.000000e+00	1.000000e+00	1.000000e+00	1.000000e+00	1.000000e+00	1.000000e+00	1.000000e+00	1.000000e+00	1.000000e+00	1.000000e+00	1.000000e+00	1.000000e+00	1.000000e+00	1.000000e+00	1.000000e+00	1.000000e+00	1.000000e+00	1.000000e+00	1.000000e+00	1.000000e+00	1.000000e+00	1.000000e+00	1.000000e+00	1.000000e+00	1.000000e+00	1.000000e+00	1.000000e+00	1.000000e+00	1.000000e+00	1.000000e+00	1.000000e+00	1.000000e+00	1.000000e+00	1.000000e+00	1.000000e+00	9.951624e-01	9.994817e-01	1.006137e+00	1.017225e+00	1.028390e+00	1.036752e+00	1.040713e+00	1.041464e+00	1.038489e+00	1.031054e+00	1.024072e+00	1.021288e+00	1.020404e+00	1.019898e+00	1.019459e+00	1.019109e+00	1.018673e+00	1.018208e+00	1.017823e+00	1.017593e+00	1.017529e+00	1.017596e+00	1.017828e+00	1.018213e+00	1.018681e+00	1.019157e+00	1.019556e+00	1.019789e+00	1.019715e+00	1.019311e+00	1.018295e+00	1.016444e+00	1.014344e+00	1.012391e+00	1.010014e+00	1.006052e+00	1.000529e+00	9.953956e-01	9.927609e-01	9.926554e-01	9.964801e-01	1.004071e+00	1.013521e+00	1.022925e+00	1.029096e+00	1.031028e+00	1.031234e+00	1.029997e+00	1.025162e+00	1.015319e+00	1.005799e+00	1.001463e+00	1.000343e+00	1.000097e+00	1.000032e+00	1.000010e+00	1.000003e+00	1.000001e+00	1.000000e+00	1.000000e+00	1.000000e+00	1.000000e+00	1.000000e+00	1.000000e+00	1.000000e+00	1.000000e+00	1.000000e+00	1.000000e+00	1.000000e+00	1.000000e+00	1.000000e+00	1.000000e+00	1.000000e+00	1.000000e+00	1.000000e+00	1.000000e+00	1.000000e+00	1.000000e+00	1.000000e+00	1.000000e+00	1.000000e+00	1.000000e+00	1.000000e+00	1.000000e+00	1.000000e+00	1.000000e+00	1.000000e+00	1.000000e+00	1.000000e+00	1.000000e+00	1.000000e+00	1.000000e+00	1.000000e+00	1.000000e+00	1.000000e+00	1.000000e+00	1.000000e+00	1.000000e+00	1.000000e+00	1.000000e+00	1.000000e+00	9.859284e-01	9.897977e-01	9.950845e-01	1.004623e+00	1.015335e+00	1.024960e+00	1.032831e+00	1.038489e+00	1.041134e+00	1.037296e+00	1.029200e+00	1.024070e+00	1.022340e+00	1.021634e+00	1.021310e+00	1.021240e+00	1.021240e+00	1.021175e+00	1.021082e+00	1.021004e+00	1.020981e+00	1.021006e+00	1.021087e+00	1.021183e+00	1.021260e+00	1.021315e+00	1.021355e+00	1.021343e+00	1.021210e+00	1.020822e+00	1.019926e+00	1.017917e+00	1.014035e+00	1.008420e+00	1.002232e+00	9.960742e-01	9.908299e-01	9.875011e-01	9.865196e-01	9.876158e-01	9.921887e-01	9.992711e-01	1.008018e+00	1.017705e+00	1.025907e+00	1.029886e+00	1.030647e+00	1.030392e+00	1.027828e+00	1.020341e+00	1.009922e+00	1.003007e+00	1.000691e+00	1.000169e+00	1.000051e+00	1.000016e+00	1.000005e+00	1.000001e+00	1.000000e+00	1.000000e+00	1.000000e+00	1.000000e+00	1.000000e+00	1.000000e+00	1.000000e+00	1.000000e+00	1.000000e+00	1.000000e+00	1.000000e+00	1.000000e+00	1.000000e+00	1.000000e+00	1.000000e+00	1.000000e+00	1.000000e+00	1.000000e+00	1.000000e+00	1.000000e+00	1.000000e+00	1.000000e+00	1.000000e+00	1.000000e+00	1.000000e+00	1.000000e+00	1.000000e+00	1.000000e+00	1.000000e+00	1.000000e+00	1.000000e+00	1.000000e+00	1.000000e+00	1.000000e+00	1.000000e+00	1.000000e+00	1.000000e+00	1.000000e+00	1.000000e+00	1.000000e+00	1.000000e+00	1.000000e+00	1.000000e+00	9.795758e-01	9.833184e-01	9.881657e-01	9.967348e-01	1.006424e+00	1.015310e+00	1.023107e+00	1.031054e+00	1.037296e+00	1.038029e+00	1.031842e+00	1.025327e+00	1.022780e+00	1.022116e+00	1.021842e+00	1.021807e+00	1.021900e+00	1.021951e+00	1.021953e+00	1.021913e+00	1.021902e+00	1.021915e+00	1.021959e+00	1.021965e+00	1.021935e+00	1.021885e+00	1.021786e+00	1.021533e+00	1.021004e+00	1.019949e+00	1.017993e+00	1.014540e+00	1.008886e+00	1.001156e+00	9.933577e-01	9.880243e-01	9.852188e-01	9.841062e-01	9.839329e-01	9.853379e-01	9.892282e-01	9.953257e-01	1.003297e+00	1.012727e+00	1.022019e+00	1.028078e+00	1.029952e+00	1.030188e+00	1.028908e+00	1.023982e+00	1.014413e+00	1.005449e+00	1.001371e+00	1.000308e+00	1.000081e+00	1.000025e+00	1.000008e+00	1.000002e+00	1.000000e+00	1.000000e+00	1.000000e+00	1.000000e+00	1.000000e+00	1.000000e+00	1.000000e+00	1.000000e+00	1.000000e+00	1.000000e+00	1.000000e+00	1.000000e+00	1.000000e+00	1.000000e+00	1.000000e+00	1.000000e+00	1.000000e+00	1.000000e+00	1.000000e+00	1.000000e+00	1.000000e+00	1.000000e+00	1.000000e+00	1.000000e+00	1.000000e+00	1.000000e+00	1.000000e+00	1.000000e+00	1.000000e+00	1.000000e+00	1.000000e+00	1.000000e+00	1.000000e+00	1.000000e+00	1.000000e+00	1.000000e+00	1.000000e+00	1.000000e+00	1.000000e+00	1.000000e+00	1.000000e+00	1.000000e+00	1.000000e+00	9.749843e-01	9.786600e-01	9.835417e-01	9.916697e-01	1.001127e+00	1.010450e+00	1.017937e+00	1.024072e+00	1.029200e+00	1.031842e+00	1.028804e+00	1.022795e+00	1.019823e+00	1.019799e+00	1.020139e+00	1.020533e+00	1.020990e+00	1.021339e+00	1.021567e+00	1.021647e+00	1.021662e+00	1.021650e+00	1.021578e+00	1.021363e+00	1.021032e+00	1.020585e+00	1.019925e+00	1.018827e+00	1.017113e+00	1.014525e+00	1.010905e+00	1.006228e+00	1.000723e+00	9.948001e-01	9.891830e-01	9.851870e-01	9.834264e-01	9.830178e-01	9.831424e-01	9.841997e-01	9.870677e-01	9.921017e-01	9.992921e-01	1.008266e+00	1.017946e+00	1.025672e+00	1.029078e+00	1.029655e+00	1.029288e+00	1.026226e+00	1.018413e+00	1.008579e+00	1.002522e+00	1.000566e+00	1.000132e+00	1.000037e+00	1.000011e+00	1.000003e+00	1.000001e+00	1.000000e+00	1.000000e+00	1.000000e+00	1.000000e+00	1.000000e+00	1.000000e+00	1.000000e+00	1.000000e+00	1.000000e+00	1.000000e+00	1.000000e+00	1.000000e+00	1.000000e+00	1.000000e+00	1.000000e+00	1.000000e+00	1.000000e+00	1.000000e+00	1.000000e+00	1.000000e+00	1.000000e+00	1.000000e+00	1.000000e+00	1.000000e+00	1.000000e+00	1.000000e+00	1.000000e+00	1.000000e+00	1.000000e+00	1.000000e+00	1.000000e+00	1.000000e+00	1.000000e+00	1.000000e+00	1.000000e+00	1.000000e+00	1.000000e+00	1.000000e+00	1.000000e+00	1.000000e+00	1.000000e+00	1.000000e+00	9.718030e-01	9.752489e-01	9.801694e-01	9.880159e-01	9.977326e-01	1.008122e+00	1.016502e+00	1.021288e+00	1.024070e+00	1.025327e+00	1.022795e+00	1.017153e+00	1.013107e+00	1.013130e+00	1.014354e+00	1.015565e+00	1.016641e+00	1.017450e+00	1.018029e+00	1.018403e+00	1.018524e+00	1.018410e+00	1.018047e+00	1.017480e+00	1.016674e+00	1.015545e+00	1.013957e+00	1.011795e+00	1.009003e+00	1.005677e+00	1.002068e+00	9.985266e-01	9.952716e-01	9.921776e-01	9.889082e-01	9.856704e-01	9.836132e-01	9.830109e-01	9.829959e-01	9.836284e-01	9.855462e-01	9.895896e-01	9.959687e-01	1.004391e+00	1.014051e+00	1.022873e+00	1.027881e+00	1.029118e+00	1.029182e+00	1.027354e+00	1.021495e+00	1.011915e+00	1.004175e+00	1.001006e+00	1.000220e+00	1.000056e+00	1.000016e+00	1.000005e+00	1.000001e+00	1.000000e+00	1.000000e+00	1.000000e+00	1.000000e+00	1.000000e+00	1.000000e+00	1.000000e+00	1.000000e+00	1.000000e+00	1.000000e+00	1.000000e+00	1.000000e+00	1.000000e+00	1.000000e+00	1.000000e+00	1.000000e+00	1.000000e+00	1.000000e+00	1.000000e+00	1.000000e+00	1.000000e+00	1.000000e+00	1.000000e+00	1.000000e+00	1.000000e+00	1.000000e+00	1.000000e+00	1.000000e+00	1.000000e+00	1.000000e+00	1.000000e+00	1.000000e+00	1.000000e+00	1.000000e+00	1.000000e+00	1.000000e+00	1.000000e+00	1.000000e+00	1.000000e+00	1.000000e+00	1.000000e+00	1.000000e+00	9.698008e-01	9.728393e-01	9.775656e-01	9.852416e-01	9.953800e-01	1.006545e+00	1.015725e+00	1.020404e+00	1.022340e+00	1.022780e+00	1.019823e+00	1.013107e+00	1.007055e+00	1.005022e+00	1.006023e+00	1.007431e+00	1.008818e+00	1.009934e+00	1.010748e+00	1.011268e+00	1.011551e+00	1.011278e+00	1.010773e+00	1.009964e+00	1.008828e+00	1.007316e+00	1.005431e+00	1.003261e+00	1.000975e+00	9.987693e-01	9.968081e-01	9.951380e-01	9.936364e-01	9.920109e-01	9.898739e-01	9.871042e-01	9.845382e-01	9.833608e-01	9.831747e-01	9.833669e-01	9.845994e-01	9.877459e-01	9.932867e-01	1.001093e+00	1.010518e+00	1.019943e+00	1.026387e+00	1.028550e+00	1.028838e+00	1.027898e+00	1.023606e+00	1.014998e+00	1.006197e+00	1.001668e+00	1.000362e+00	1.000083e+00	1.000023e+00	1.000007e+00	1.000002e+00	1.000000e+00	1.000000e+00	1.000000e+00	1.000000e+00	1.000000e+00	1.000000e+00	1.000000e+00	1.000000e+00	1.000000e+00	1.000000e+00	1.000000e+00	1.000000e+00	1.000000e+00	1.000000e+00	1.000000e+00	1.000000e+00	1.000000e+00	1.000000e+00	1.000000e+00	1.000000e+00	1.000000e+00	1.000000e+00	1.000000e+00	1.000000e+00	1.000000e+00	1.000000e+00	1.000000e+00	1.000000e+00	1.000000e+00	1.000000e+00	1.000000e+00	1.000000e+00	1.000000e+00	1.000000e+00	1.000000e+00	1.000000e+00	1.000000e+00	1.000000e+00	1.000000e+00	1.000000e+00	1.000000e+00	1.000000e+00	9.687381e-01	9.713125e-01	9.755940e-01	9.831509e-01	9.936317e-01	1.005130e+00	1.014758e+00	1.019898e+00	1.021634e+00	1.022116e+00	1.019799e+00	1.013130e+00	1.005022e+00	1.000641e+00	9.998392e-01	1.000555e+00	1.001420e+00	1.002255e+00	1.002913e+00	1.003335e+00	1.003505e+00	1.003349e+00	1.002940e+00	1.002280e+00	1.001395e+00	1.000328e+00	9.991644e-01	9.980046e-01	9.969311e-01	9.959870e-01	9.951539e-01	9.943685e-01	9.935150e-01	9.924008e-01	9.907600e-01	9.883798e-01	9.856848e-01	9.838907e-01	9.834043e-01	9.833944e-01	9.841339e-01	9.864749e-01	9.911949e-01	9.983478e-01	1.007425e+00	1.017117e+00	1.024680e+00	1.027909e+00	1.028450e+00	1.028077e+00	1.024972e+00	1.017560e+00	1.008357e+00	1.002545e+00	1.000571e+00	1.000124e+00	1.000031e+00	1.000009e+00	1.000003e+00	1.000001e+00	1.000000e+00	1.000000e+00	1.000000e+00	1.000000e+00	1.000000e+00	1.000000e+00	1.000000e+00	1.000000e+00	1.000000e+00	1.000000e+00	1.000000e+00	1.000000e+00	1.000000e+00	1.000000e+00	1.000000e+00	1.000000e+00	1.000000e+00	1.000000e+00	1.000000e+00	1.000000e+00	1.000000e+00	1.000000e+00	1.000000e+00	1.000000e+00	1.000000e+00	1.000000e+00	1.000000e+00	1.000000e+00	1.000000e+00	1.000000e+00	1.000000e+00	1.000000e+00	1.000000e+00	1.000000e+00	1.000000e+00	1.000000e+00	1.000000e+00	1.000000e+00	1.000000e+00	1.000000e+00	1.000000e+00	9.682007e-01	9.704372e-01	9.742715e-01	9.816424e-01	9.922306e-01	1.003773e+00	1.013732e+00	1.019459e+00	1.021310e+00	1.021842e+00	1.020139e+00	1.014354e+00	1.006023e+00	9.998392e-01	9.976658e-01	9.973978e-01	9.976482e-01	9.979869e-01	9.982824e-01	9.984876e-01	9.985717e-01	9.985088e-01	9.983063e-01	9.979939e-01	9.975947e-01	9.971473e-01	9.966878e-01	9.962283e-01	9.957752e-01	9.953299e-01	9.948672e-01	9.943486e-01	9.937039e-01	9.928066e-01	9.914502e-01	9.894128e-01	9.867725e-01	9.845269e-01	9.836575e-01	9.835521e-01	9.839288e-01	9.856658e-01	9.896308e-01	9.961280e-01	1.004802e+00	1.014549e+00	1.022924e+00	1.027186e+00	1.028097e+00	1.028008e+00	1.025786e+00	1.019524e+00	1.010425e+00	1.003571e+00	1.000851e+00	1.000180e+00	1.000042e+00	1.000012e+00	1.000003e+00	1.000001e+00	1.000000e+00	1.000000e+00	1.000000e+00	1.000000e+00	1.000000e+00	1.000000e+00	1.000000e+00	1.000000e+00	1.000000e+00	1.000000e+00	1.000000e+00	1.000000e+00	1.000000e+00	1.000000e+00	1.000000e+00	1.000000e+00	1.000000e+00	1.000000e+00	1.000000e+00	1.000000e+00	1.000000e+00	1.000000e+00	1.000000e+00	1.000000e+00	1.000000e+00	1.000000e+00	1.000000e+00	1.000000e+00	1.000000e+00	1.000000e+00	1.000000e+00	1.000000e+00	1.000000e+00	1.000000e+00	1.000000e+00	1.000000e+00	1.000000e+00	1.000000e+00	1.000000e+00	1.000000e+00	1.000000e+00	9.680280e-01	9.699134e-01	9.734478e-01	9.806743e-01	9.911058e-01	1.002496e+00	1.012700e+00	1.019109e+00	1.021240e+00	1.021807e+00	1.020533e+00	1.015565e+00	1.007431e+00	1.000555e+00	9.973978e-01	9.966201e-01	9.965490e-01	9.966233e-01	9.967101