# vtk DataFile Version 3.0
vtk output
ASCII
DATASET STRUCTURED_GRID
DIMENSIONS 101 101 1
POINTS 10201 double
0.000000e+00	0.000000e+00	0.0	1.000000e-02	0.000000e+00	0.0	2.000000e-02	0.000000e+00	0.0	3.000000e-02	0.000000e+00	0.0	4.000000e-02	0.000000e+00	0.0	5.000000e-02	0.000000e+00	0.0	6.000000e-02	0.000000e+00	0.0	7.000000e-02	0.000000e+00	0.0	8.000000e-02	0.000000e+00	0.0	9.000000e-02	0.000000e+00	0.0	1.000000e-01	0.000000e+00	0.0	1.100000e-01	0.000000e+00	0.0	1.200000e-01	0.000000e+00	0.0	1.300000e-01	0.000000e+00	0.0	1.400000e-01	0.000000e+00	0.0	1.500000e-01	0.000000e+00	0.0	1.600000e-01	0.000000e+00	0.0	1.700000e-01	0.000000e+00	0.0	1.800000e-01	0.000000e+00	0.0	1.900000e-01	0.000000e+00	0.0	2.000000e-01	0.000000e+00	0.0	2.100000e-01	0.000000e+00	0.0	2.200000e-01	0.000000e+00	0.0	2.300000e-01	0.000000e+00	0.0	2.400000e-01	0.000000e+00	0.0	2.500000e-01	0.000000e+00	0.0	2.600000e-01	0.000000e+00	0.0	2.700000e-01	0.000000e+00	0.0	2.800000e-01	0.000000e+00	0.0	2.900000e-01	0.000000e+00	0.0	3.000000e-01	0.000000e+00	0.0	3.100000e-01	0.000000e+00	0.0	3.200000e-01	0.000000e+00	0.0	3.300000e-01	0.000000e+00	0.0	3.400000e-01	0.000000e+00	0.0	3.500000e-01	0.000000e+00	0.0	3.600000e-01	0.000000e+00	0.0	3.700000e-01	0.000000e+00	0.0	3.800000e-01	0.000000e+00	0.0	3.900000e-01	0.000000e+00	0.0	4.000000e-01	0.000000e+00	0.0	4.100000e-01	0.000000e+00	0.0	4.200000e-01	0.000000e+00	0.0	4.300000e-01	0.000000e+00	0.0	4.400000e-01	0.000000e+00	0.0	4.500000e-01	0.000000e+00	0.0	4.600000e-01	0.000000e+00	0.0	4.700000e-01	0.000000e+00	0.0	4.800000e-01	0.000000e+00	0.0	4.900000e-01	0.000000e+00	0.0	5.000000e-01	0.000000e+00	0.0	5.100000e-01	0.000000e+00	0.0	5.200000e-01	0.000000e+00	0.0	5.300000e-01	0.000000e+00	0.0	5.400000e-01	0.000000e+00	0.0	5.500000e-01	0.000000e+00	0.0	5.600000e-01	0.000000e+00	0.0	5.700000e-01	0.000000e+00	0.0	5.800000e-01	0.000000e+00	0.0	5.900000e-01	0.000000e+00	0.0	6.000000e-01	0.000000e+00	0.0	6.100000e-01	0.000000e+00	0.0	6.200000e-01	0.000000e+00	0.0	6.300000e-01	0.000000e+00	0.0	6.400000e-01	0.000000e+00	0.0	6.500000e-01	0.000000e+00	0.0	6.600000e-01	0.000000e+00	0.0	6.700000e-01	0.000000e+00	0.0	6.800000e-01	0.000000e+00	0.0	6.900000e-01	0.000000e+00	0.0	7.000000e-01	0.000000e+00	0.0	7.100000e-01	0.000000e+00	0.0	7.200000e-01	0.000000e+00	0.0	7.300000e-01	0.000000e+00	0.0	7.400000e-01	0.000000e+00	0.0	7.500000e-01	0.000000e+00	0.0	7.600000e-01	0.000000e+00	0.0	7.700000e-01	0.000000e+00	0.0	7.800000e-01	0.000000e+00	0.0	7.900000e-01	0.000000e+00	0.0	8.000000e-01	0.000000e+00	0.0	8.100000e-01	0.000000e+00	0.0	8.200000e-01	0.000000e+00	0.0	8.300000e-01	0.000000e+00	0.0	8.400000e-01	0.000000e+00	0.0	8.500000e-01	0.000000e+00	0.0	8.600000e-01	0.000000e+00	0.0	8.700000e-01	0.000000e+00	0.0	8.800000e-01	0.000000e+00	0.0	8.900000e-01	0.000000e+00	0.0	9.000000e-01	0.000000e+00	0.0	9.100000e-01	0.000000e+00	0.0	9.200000e-01	0.000000e+00	0.0	9.300000e-01	0.000000e+00	0.0	9.400000e-01	0.000000e+00	0.0	9.500000e-01	0.000000e+00	0.0	9.600000e-01	0.000000e+00	0.0	9.700000e-01	0.000000e+00	0.0	9.800000e-01	0.000000e+00	0.0	9.900000e-01	0.000000e+00	0.0	1.000000e+00	0.000000e+00	0.0	0.000000e+00	1.000000e-02	0.0	1.000000e-02	1.000000e-02	0.0	2.000000e-02	1.000000e-02	0.0	3.000000e-02	1.000000e-02	0.0	4.000000e-02	1.000000e-02	0.0	5.000000e-02	1.000000e-02	0.0	6.000000e-02	1.000000e-02	0.0	7.000000e-02	1.000000e-02	0.0	8.000000e-02	1.000000e-02	0.0	9.000000e-02	1.000000e-02	0.0	1.000000e-01	1.000000e-02	0.0	1.100000e-01	1.000000e-02	0.0	1.200000e-01	1.000000e-02	0.0	1.300000e-01	1.000000e-02	0.0	1.400000e-01	1.000000e-02	0.0	1.500000e-01	1.000000e-02	0.0	1.600000e-01	1.000000e-02	0.0	1.700000e-01	1.000000e-02	0.0	1.800000e-01	1.000000e-02	0.0	1.900000e-01	1.000000e-02	0.0	2.000000e-01	1.000000e-02	0.0	2.100000e-01	1.000000e-02	0.0	2.200000e-01	1.000000e-02	0.0	2.300000e-01	1.000000e-02	0.0	2.400000e-01	1.000000e-02	0.0	2.500000e-01	1.000000e-02	0.0	2.600000e-01	1.000000e-02	0.0	2.700000e-01	1.000000e-02	0.0	2.800000e-01	1.000000e-02	0.0	2.900000e-01	1.000000e-02	0.0	3.000000e-01	1.000000e-02	0.0	3.100000e-01	1.000000e-02	0.0	3.200000e-01	1.000000e-02	0.0	3.300000e-01	1.000000e-02	0.0	3.400000e-01	1.000000e-02	0.0	3.500000e-01	1.000000e-02	0.0	3.600000e-01	1.000000e-02	0.0	3.700000e-01	1.000000e-02	0.0	3.800000e-01	1.000000e-02	0.0	3.900000e-01	1.000000e-02	0.0	4.000000e-01	1.000000e-02	0.0	4.100000e-01	1.000000e-02	0.0	4.200000e-01	1.000000e-02	0.0	4.300000e-01	1.000000e-02	0.0	4.400000e-01	1.000000e-02	0.0	4.500000e-01	1.000000e-02	0.0	4.600000e-01	1.000000e-02	0.0	4.700000e-01	1.000000e-02	0.0	4.800000e-01	1.000000e-02	0.0	4.900000e-01	1.000000e-02	0.0	5.000000e-01	1.000000e-02	0.0	5.100000e-01	1.000000e-02	0.0	5.200000e-01	1.000000e-02	0.0	5.300000e-01	1.000000e-02	0.0	5.400000e-01	1.000000e-02	0.0	5.500000e-01	1.000000e-02	0.0	5.600000e-01	1.000000e-02	0.0	5.700000e-01	1.000000e-02	0.0	5.800000e-01	1.000000e-02	0.0	5.900000e-01	1.000000e-02	0.0	6.000000e-01	1.000000e-02	0.0	6.100000e-01	1.000000e-02	0.0	6.200000e-01	1.000000e-02	0.0	6.300000e-01	1.000000e-02	0.0	6.400000e-01	1.000000e-02	0.0	6.500000e-01	1.000000e-02	0.0	6.600000e-01	1.000000e-02	0.0	6.700000e-01	1.000000e-02	0.0	6.800000e-01	1.000000e-02	0.0	6.900000e-01	1.000000e-02	0.0	7.000000e-01	1.000000e-02	0.0	7.100000e-01	1.000000e-02	0.0	7.200000e-01	1.000000e-02	0.0	7.300000e-01	1.000000e-02	0.0	7.400000e-01	1.000000e-02	0.0	7.500000e-01	1.000000e-02	0.0	7.600000e-01	1.000000e-02	0.0	7.700000e-01	1.000000e-02	0.0	7.800000e-01	1.000000e-02	0.0	7.900000e-01	1.000000e-02	0.0	8.000000e-01	1.000000e-02	0.0	8.100000e-01	1.000000e-02	0.0	8.200000e-01	1.000000e-02	0.0	8.300000e-01	1.000000e-02	0.0	8.400000e-01	1.000000e-02	0.0	8.500000e-01	1.000000e-02	0.0	8.600000e-01	1.000000e-02	0.0	8.700000e-01	1.000000e-02	0.0	8.800000e-01	1.000000e-02	0.0	8.900000e-01	1.000000e-02	0.0	9.000000e-01	1.000000e-02	0.0	9.100000e-01	1.000000e-02	0.0	9.200000e-01	1.000000e-02	0.0	9.300000e-01	1.000000e-02	0.0	9.400000e-01	1.000000e-02	0.0	9.500000e-01	1.000000e-02	0.0	9.600000e-01	1.000000e-02	0.0	9.700000e-01	1.000000e-02	0.0	9.800000e-01	1.000000e-02	0.0	9.900000e-01	1.000000e-02	0.0	1.000000e+00	1.000000e-02	0.0	0.000000e+00	2.000000e-02	0.0	1.000000e-02	2.000000e-02	0.0	2.000000e-02	2.000000e-02	0.0	3.000000e-02	2.000000e-02	0.0	4.000000e-02	2.000000e-02	0.0	5.000000e-02	2.000000e-02	0.0	6.000000e-02	2.000000e-02	0.0	7.000000e-02	2.000000e-02	0.0	8.000000e-02	2.000000e-02	0.0	9.000000e-02	2.000000e-02	0.0	1.000000e-01	2.000000e-02	0.0	1.100000e-01	2.000000e-02	0.0	1.200000e-01	2.000000e-02	0.0	1.300000e-01	2.000000e-02	0.0	1.400000e-01	2.000000e-02	0.0	1.500000e-01	2.000000e-02	0.0	1.600000e-01	2.000000e-02	0.0	1.700000e-01	2.000000e-02	0.0	1.800000e-01	2.000000e-02	0.0	1.900000e-01	2.000000e-02	0.0	2.000000e-01	2.000000e-02	0.0	2.100000e-01	2.000000e-02	0.0	2.200000e-01	2.000000e-02	0.0	2.300000e-01	2.000000e-02	0.0	2.400000e-01	2.000000e-02	0.0	2.500000e-01	2.000000e-02	0.0	2.600000e-01	2.000000e-02	0.0	2.700000e-01	2.000000e-02	0.0	2.800000e-01	2.000000e-02	0.0	2.900000e-01	2.000000e-02	0.0	3.000000e-01	2.000000e-02	0.0	3.100000e-01	2.000000e-02	0.0	3.200000e-01	2.000000e-02	0.0	3.300000e-01	2.000000e-02	0.0	3.400000e-01	2.000000e-02	0.0	3.500000e-01	2.000000e-02	0.0	3.600000e-01	2.000000e-02	0.0	3.700000e-01	2.000000e-02	0.0	3.800000e-01	2.000000e-02	0.0	3.900000e-01	2.000000e-02	0.0	4.000000e-01	2.000000e-02	0.0	4.100000e-01	2.000000e-02	0.0	4.200000e-01	2.000000e-02	0.0	4.300000e-01	2.000000e-02	0.0	4.400000e-01	2.000000e-02	0.0	4.500000e-01	2.000000e-02	0.0	4.600000e-01	2.000000e-02	0.0	4.700000e-01	2.000000e-02	0.0	4.800000e-01	2.000000e-02	0.0	4.900000e-01	2.000000e-02	0.0	5.000000e-01	2.000000e-02	0.0	5.100000e-01	2.000000e-02	0.0	5.200000e-01	2.000000e-02	0.0	5.300000e-01	2.000000e-02	0.0	5.400000e-01	2.000000e-02	0.0	5.500000e-01	2.000000e-02	0.0	5.600000e-01	2.000000e-02	0.0	5.700000e-01	2.000000e-02	0.0	5.800000e-01	2.000000e-02	0.0	5.900000e-01	2.000000e-02	0.0	6.000000e-01	2.000000e-02	0.0	6.100000e-01	2.000000e-02	0.0	6.200000e-01	2.000000e-02	0.0	6.300000e-01	2.000000e-02	0.0	6.400000e-01	2.000000e-02	0.0	6.500000e-01	2.000000e-02	0.0	6.600000e-01	2.000000e-02	0.0	6.700000e-01	2.000000e-02	0.0	6.800000e-01	2.000000e-02	0.0	6.900000e-01	2.000000e-02	0.0	7.000000e-01	2.000000e-02	0.0	7.100000e-01	2.000000e-02	0.0	7.200000e-01	2.000000e-02	0.0	7.300000e-01	2.000000e-02	0.0	7.400000e-01	2.000000e-02	0.0	7.500000e-01	2.000000e-02	0.0	7.600000e-01	2.000000e-02	0.0	7.700000e-01	2.000000e-02	0.0	7.800000e-01	2.000000e-02	0.0	7.900000e-01	2.000000e-02	0.0	8.000000e-01	2.000000e-02	0.0	8.100000e-01	2.000000e-02	0.0	8.200000e-01	2.000000e-02	0.0	8.300000e-01	2.000000e-02	0.0	8.400000e-01	2.000000e-02	0.0	8.500000e-01	2.000000e-02	0.0	8.600000e-01	2.000000e-02	0.0	8.700000e-01	2.000000e-02	0.0	8.800000e-01	2.000000e-02	0.0	8.900000e-01	2.000000e-02	0.0	9.000000e-01	2.000000e-02	0.0	9.100000e-01	2.000000e-02	0.0	9.200000e-01	2.000000e-02	0.0	9.300000e-01	2.000000e-02	0.0	9.400000e-01	2.000000e-02	0.0	9.500000e-01	2.000000e-02	0.0	9.600000e-01	2.000000e-02	0.0	9.700000e-01	2.000000e-02	0.0	9.800000e-01	2.000000e-02	0.0	9.900000e-01	2.000000e-02	0.0	1.000000e+00	2.000000e-02	0.0	0.000000e+00	3.000000e-02	0.0	1.000000e-02	3.000000e-02	0.0	2.000000e-02	3.000000e-02	0.0	3.000000e-02	3.000000e-02	0.0	4.000000e-02	3.000000e-02	0.0	5.000000e-02	3.000000e-02	0.0	6.000000e-02	3.000000e-02	0.0	7.000000e-02	3.000000e-02	0.0	8.000000e-02	3.000000e-02	0.0	9.000000e-02	3.000000e-02	0.0	1.000000e-01	3.000000e-02	0.0	1.100000e-01	3.000000e-02	0.0	1.200000e-01	3.000000e-02	0.0	1.300000e-01	3.000000e-02	0.0	1.400000e-01	3.000000e-02	0.0	1.500000e-01	3.000000e-02	0.0	1.600000e-01	3.000000e-02	0.0	1.700000e-01	3.000000e-02	0.0	1.800000e-01	3.000000e-02	0.0	1.900000e-01	3.000000e-02	0.0	2.000000e-01	3.000000e-02	0.0	2.100000e-01	3.000000e-02	0.0	2.200000e-01	3.000000e-02	0.0	2.300000e-01	3.000000e-02	0.0	2.400000e-01	3.000000e-02	0.0	2.500000e-01	3.000000e-02	0.0	2.600000e-01	3.000000
[...]
POINT_DATA 10201

SCALARS Height double 1
LOOKUP_TABLE default
9.633618e-01	9.670567e-01	9.720804e-01	9.819789e-01	9.944244e-01	1.007297e+00	1.018615e+00	1.027558e+00	1.033227e+00	1.034991e+00	1.029518e+00	1.015359e+00	9.996747e-01	9.896892e-01	9.859777e-01	9.854131e-01	9.857568e-01	9.861855e-01	9.865164e-01	9.867136e-01	9.867715e-01	9.867120e-01	9.865364e-01	9.862347e-01	9.857785e-01	9.851530e-01	9.843060e-01	9.832243e-01	9.818543e-01	9.801336e-01	9.780323e-01	9.756386e-01	9.732498e-01	9.712773e-01	9.700599e-01	9.695846e-01	9.697165e-01	9.704922e-01	9.723345e-01	9.754835e-01	9.804101e-01	9.875271e-01	9.971427e-01	1.009607e+00	1.024387e+00	1.039077e+00	1.050642e+00	1.057852e+00	1.061080e+00	1.060606e+00	1.053753e+00	1.037681e+00	1.018785e+00	1.006537e+00	1.001788e+00	1.000471e+00	1.000140e+00	1.000047e+00	1.000016e+00	1.000005e+00	1.000001e+00	1.000000e+00	1.000000e+00	1.000000e+00	1.000000e+00	1.000000e+00	1.000000e+00	1.000000e+00	1.000000e+00	1.000000e+00	1.000000e+00	1.000000e+00	1.000000e+00	1.000000e+00	1.000000e+00	1.000000e+00	1.000000e+00	1.000000e+00	1.000000e+00	1.000000e+00	1.000000e+00	1.000000e+00	1.000000e+00	1.000000e+00	1.000000e+00	1.000000e+00	1.000000e+00	1.000000e+00	1.000000e+00	1.000000e+00	1.000000e+00	1.000000e+00	1.000000e+00	1.000000e+00	1.000000e+00	1.000000e+00	1.000000e+00	1.000000e+00	1.000000e+00	1.000000e+00	1.000000e+00	9.670567e-01	9.707325e-01	9.751555e-01	9.846308e-01	9.963152e-01	1.008815e+00	1.019998e+00	1.028144e+00	1.032146e+00	1.033007e+00	1.027342e+00	1.013450e+00	9.978948e-01	9.880569e-01	9.845327e-01	9.841290e-01	9.845636e-01	9.850321e-01	9.853904e-01	9.856067e-01	9.856734e-01	9.856108e-01	9.854222e-01	9.850945e-01	9.846109e-01	9.839616e-01	9.831030e-01	9.820418e-01	9.807597e-01	9.792318e-01	9.774532e-01	9.754877e-01	9.735004e-01	9.716992e-01	9.704346e-01	9.700390e-01	9.703215e-01	9.713039e-01	9.735490e-01	9.771355e-01	9.823565e-01	9.897230e-01	9.995488e-01	1.011897e+00	1.026200e+00	1.040544e+00	1.051827e+00	1.058144e+00	1.060148e+00	1.059217e+00	1.051936e+00	1.036448e+00	1.018201e+00	1.006218e+00	1.001547e+00	1.000365e+00	1.000106e+00	1.000037e+00	1.000013e+00	1.000004e+00	1.000001e+00	1.000000e+00	1.000000e+00	1.000000e+00	1.000000e+00	1.000000e+00	1.000000e+00	1.000000e+00	1.000000e+00	1.000000e+00	1.000000e+00	1.000000e+00	1.000000e+00	1.000000e+00	1.000000e+00	1.000000e+00	1.000000e+00	1.000000e+00	1.000000e+00	1.000000e+00	1.000000e+00	1.000000e+00	1.000000e+00	1.000000e+00	1.000000e+00	1.000000e+00	1.000000e+00	1.000000e+00	1.000000e+00	1.000000e+00	1.000000e+00	1.000000e+00	1.000000e+00	1.000000e+00	1.000000e+00	1.000000e+00	1.000000e+00	1.000000e+00	1.000000e+00	1.000000e+00	1.000000e+00	9.720804e-01	9.751555e-01	9.786782e-01	9.866709e-01	9.966322e-01	1.008084e+00	1.019058e+00	1.026592e+00	1.029807e+00	1.029796e+00	1.024259e+00	1.014190e+00	1.002841e+00	9.924703e-01	9.859897e-01	9.840144e-01	9.838693e-01	9.841708e-01	9.844875e-01	9.847090e-01	9.847965e-01	9.847418e-01	9.845527e-01	9.842337e-01	9.837804e-01	9.831943e-01	9.824859e-01	9.816809e-01	9.808039e-01	9.798652e-01	9.788415e-01	9.776837e-01	9.762236e-01	9.745115e-01	9.728919e-01	9.719186e-01	9.719293e-01	9.730194e-01	9.757744e-01	9.798594e-01	9.852623e-01	9.924098e-01	1.001754e+00	1.012799e+00	1.024657e+00	1.036388e+00	1.046685e+00	1.053474e+00	1.055361e+00	1.054138e+00	1.047318e+00	1.035163e+00	1.022832e+00	1.011264e+00	1.003620e+00	1.000812e+00	1.000183e+00	1.000054e+00	1.000018e+00	1.000006e+00	1.000002e+00	1.000000e+00	1.000000e+00	1.000000e+00	1.000000e+00	1.000000e+00	1.000000e+00	1.000000e+00	1.000000e+00	1.000000e+00	1.000000e+00	1.000000e+00	1.000000e+00	1.000000e+00	1.000000e+00	1.000000e+00	1.000000e+00	1.000000e+00	1.000000e+00	1.000000e+00	1.000000e+00	1.000000e+00	1.000000e+00	1.000000e+00	1.000000e+00	1.000000e+00	1.000000e+00	1.000000e+00	1.000000e+00	1.000000e+00	1.000000e+00	1.000000e+00	1.000000e+00	1.000000e+00	1.000000e+00	1.000000e+00	1.000000e+00	1.000000e+00	1.000000e+00	1.000000e+00	1.000000e+00	9.819789e-01	9.846308e-01	9.866709e-01	9.927925e-01	1.000561e+00	1.009562e+00	1.018231e+00	1.023863e+00	1.025274e+00	1.024152e+00	1.018894e+00	1.012186e+00	1.005446e+00	9.970505e-01	9.889190e-01	9.842398e-01	9.829073e-01	9.828250e-01	9.829985e-01	9.831732e-01	9.832614e-01	9.832278e-01	9.830789e-01	9.828354e-01	9.825078e-01	9.821124e-01	9.816752e-01	9.812226e-01	9.807585e-01	9.802444e-01	9.796421e-01	9.789242e-01	9.781777e-01	9.774235e-01	9.766228e-01	9.759963e-01	9.760691e-01	9.771578e-01	9.801081e-01	9.846207e-01	9.905345e-01	9.979438e-01	1.006584e+00	1.015757e+00	1.024506e+00	1.032958e+00	1.041807e+00	1.047808e+00	1.048787e+00	1.046648e+00	1.039784e+00	1.031836e+00	1.025082e+00	1.016775e+00	1.007520e+00	1.002012e+00	1.000402e+00	1.000092e+00	1.000028e+00	1.000009e+00	1.000003e+00	1.000001e+00	1.000000e+00	1.000000e+00	1.000000e+00	1.000000e+00	1.000000e+00	1.000000e+00	1.000000e+00	1.000000e+00	1.000000e+00	1.000000e+00	1.000000e+00	1.000000e+00	1.000000e+00	1.000000e+00	1.000000e+00	1.000000e+00	1.000000e+00	1.000000e+00	1.000000e+00	1.000000e+00	1.000000e+00	1.000000e+00	1.000000e+00	1.000000e+00	1.000000e+00	1.000000e+00	1.000000e+00	1.000000e+00	1.000000e+00	1.000000e+00	1.000000e+00	1.000000e+00	1.000000e+00	1.000000e+00	1.000000e+00	1.000000e+00	1.000000e+00	1.000000e+00	1.000000e+00	9.944244e-01	9.963152e-01	9.966322e-01	1.000561e+00	1.005808e+00	1.011374e+00	1.016095e+00	1.019099e+00	1.019265e+00	1.017696e+00	1.014033e+00	1.010595e+00	1.007151e+00	1.001632e+00	9.934334e-01	9.864651e-01	9.834102e-01	9.825846e-01	9.824639e-01	9.825099e-01	9.825678e-01	9.825725e-01	9.825143e-01	9.823991e-01	9.822335e-01	9.820225e-01	9.817748e-01	9.815017e-01	9.811912e-01	9.808498e-01	9.805133e-01	9.803338e-01	9.804166e-01	9.806919e-01	9.810543e-01	9.814999e-01	9.821684e-01	9.836652e-01	9.866893e-01	9.914013e-01	9.974795e-01	1.004302e+00	1.011066e+00	1.017185e+00	1.022926e+00	1.029249e+00	1.035325e+00	1.039244e+00	1.039792e+00	1.037805e+00	1.033185e+00	1.029412e+00	1.026423e+00	1.021470e+00	1.012728e+00	1.004506e+00	1.000996e+00	1.000195e+00	1.000049e+00	1.000015e+00	1.000005e+00	1.000001e+00	1.000000e+00	1.000000e+00	1.000000e+00	1.000000e+00	1.000000e+00	1.000000e+00	1.000000e+00	1.000000e+00	1.000000e+00	1.000000e+00	1.000000e+00	1.000000e+00	1.000000e+00	1.000000e+00	1.000000e+00	1.000000e+00	1.000000e+00	1.000000e+00	1.000000e+00	1.000000e+00	1.000000e+00	1.000000e+00	1.000000e+00	1.000000e+00	1.000000e+00	1.000000e+00	1.000000e+00	1.000000e+00	1.000000e+00	1.000000e+00	1.000000e+00	1.000000e+00	1.000000e+00	1.000000e+00	1.000000e+00	1.000000e+00	1.000000e+00	1.000000e+00	1.000000e+00	1.007297e+00	1.008815e+00	1.008084e+00	1.009562e+00	1.011374e+00	1.012921e+00	1.013433e+00	1.013322e+00	1.013292e+00	1.012597e+00	1.011411e+00	1.009831e+00	1.008494e+00	1.005508e+00	9.985233e-01	9.899992e-01	9.848869e-01	9.831575e-01	9.827472e-01	9.826863e-01	9.827074e-01	9.827226e-01	9.826993e-01	9.826176e-01	9.824914e-01	9.823364e-01	9.821770e-01	9.820397e-01	9.819596e-01	9.819921e-01	9.822291e-01	9.827073e-01	9.835633e-01	9.848070e-01	9.864061e-01	9.881811e-01	9.899995e-01	9.921024e-01	9.951072e-01	9.995321e-01	1.004907e+00	1.009957e+00	1.013891e+00	1.017141e+00	1.020796e+00	1.024769e+00	1.027207e+00	1.028162e+00	1.028976e+00	1.029119e+00	1.028485e+00	1.027935e+00	1.027024e+00	1.024513e+00	1.017669e+00	1.008263e+00	1.002288e+00	1.000453e+00	1.000094e+00	1.000026e+00	1.000008e+00	1.000003e+00	1.000001e+00	1.000000e+00	1.000000e+00	1.000000e+00	1.000000e+00	1.000000e+00	1.000000e+00	1.000000e+00	1.000000e+00	1.000000e+00	1.000000e+00	1.000000e+00	1.000000e+00	1.000000e+00	1.000000e+00	1.000000e+00	1.000000e+00	1.000000e+00	1.000000e+00	1.000000e+00	1.000000e+00	1.000000e+00	1.000000e+00	1.000000e+00	1.000000e+00	1.000000e+00	1.000000e+00	1.000000e+00	1.000000e+00	1.000000e+00	1.000000e+00	1.000000e+00	1.000000e+00	1.000000e+00	1.000000e+00	1.000000e+00	1.000000e+00	1.000000e+00	1.000000e+00	1.018615e+00	1.019998e+00	1.019058e+00	1.018231e+00	1.016095e+00	1.013433e+00	1.010900e+00	1.008778e+00	1.008435e+00	1.010068e+00	1.010886e+00	1.010798e+00	1.010666e+00	1.008981e+00	1.003511e+00	9.948388e-01	9.876276e-01	9.844346e-01	9.834766e-01	9.832303e-01	9.831971e-01	9.832045e-01	9.832194e-01	9.832181e-01	9.832029e-01	9.832108e-01	9.832989e-01	9.835158e-01	9.838735e-01	9.844461e-01	9.853150e-01	9.865271e-01	9.881625e-01	9.902825e-01	9.928758e-01	9.957979e-01	9.988089e-01	1.001734e+00	1.004681e+00	1.007856e+00	1.010957e+00	1.013259e+00	1.014771e+00	1.016354e+00	1.017851e+00	1.017998e+00	1.017252e+00	1.016563e+00	1.017907e+00	1.022243e+00	1.026052e+00	1.027003e+00	1.027125e+00	1.025947e+00	1.021344e+00	1.012571e+00	1.004521e+00	1.001028e+00	1.000197e+00	1.000045e+00	1.000013e+00	1.000004e+00	1.000001e+00	1.000000e+00	1.000000e+00	1.000000e+00	1.000000e+00	1.000000e+00	1.000000e+00	1.000000e+00	1.000000e+00	1.000000e+00	1.000000e+00	1.000000e+00	1.000000e+00	1.000000e+00	1.000000e+00	1.000000e+00	1.000000e+00	1.000000e+00	1.000000e+00	1.000000e+00	1.000000e+00	1.000000e+00	1.000000e+00	1.000000e+00	1.000000e+00	1.000000e+00	1.000000e+00	1.000000e+00	1.000000e+00	1.000000e+00	1.000000e+00	1.000000e+00	1.000000e+00	1.000000e+00	1.000000e+00	1.000000e+00	1.000000e+00	1.000000e+00	1.000000e+00	1.027558e+00	1.028144e+00	1.026592e+00	1.023863e+00	1.019099e+00	1.013322e+00	1.008778e+00	1.006082e+00	1.005975e+00	1.009669e+00	1.013648e+00	1.014457e+00	1.014147e+00	1.012764e+00	1.008632e+00	1.000851e+00	9.923285e-01	9.872443e-01	9.853871e-01	9.848279e-01	9.846879e-01	9.846967e-01	9.847895e-01	9.849352e-01	9.851451e-01	9.854650e-01	9.859128e-01	9.865711e-01	9.874571e-01	9.886202e-01	9.901142e-01	9.920062e-01	9.943477e-01	9.971706e-01	1.000461e+00	1.004115e+00	1.007842e+00	1.011112e+00	1.013315e+00	1.014271e+00	1.014491e+00	1.014462e+00	1.014631e+00	1.014416e+00	1.012418e+00	1.008863e+00	1.006407e+00	1.006081e+00	1.009689e+00	1.017474e+00	1.023964e+00	1.026437e+00	1.026842e+00	1.026415e+00	1.023615e+00	1.016521e+00	1.007574e+00	1.002110e+00	1.000421e+00	1.000084e+00	1.000021e+00	1.000006e+00	1.000002e+00	1.000001e+00	1.000000e+00	1.000000e+00	1.000000e+00	1.000000e+00	1.000000e+00	1.000000e+00	1.000000e+00	1.000000e+00	1.000000e+00	1.000000e+00	1.000000e+00	1.000000e+00	1.000000e+00	1.000000e+00	1.000000e+00	1.000000e+00	1.000000e+00	1.000000e+00	1.000000e+00	1.000000e+00	1.000000e+00	1.000000e+00	1.000000e+00	1.000000e+00	1.000000e+00	1.000000e+00	1.000000e+00	1.000000e+00	1.000000e+00	1.000000e+00	1.000000e+00	1.000000e+00	1.000000e+00	1.000000e+00	1.000000e+00	1.000000e+00	1.000000e+00	1.033227e+00	1.032146e+00	1.029807e+00	1.025274e+00	1.019265e+00	1.013292e+00	1.008435e+00	1.005975e+00	1.007603e+00	1.013054e+00	1.018432e+00	1.019825e+00	1.019095e+00	1.017753e+00	1.014500e+00	1.008022e+00	9.991692e-01	9.922745e-01	9.892117e-01	9.881679e-01	9.878754e-01	9.878987e-01	9.880946e-01	9.884065e-01	9.888758e-01	9.895242e-01	9.903750e-01	9.914676e-01	9.928387e-01	9.945255e-01	9.965777e-01	9.990347e-01	1.001913e+00	1.005200e+00	1.008824e+00	1.012563e+00	1.015945e+00	1.018150e+00	1.018797e+00	1.018101e+00	1.016268e+00	1.014853e+00	1.013210e+00	1.009591e+00	1.003789e+00	9.990095e-01	9.973580e-01	9.984824e-01	1.004756e+00	1.013869e+00	1.021647e+00	1.025570e+00	1.026422e+00	1.026415e+00	1.024801e+00	1.019592e+00	1.010963e+00	1.003796e+00	1.000853e+00	1.000162e+00	1.000035e+00	1.000010e+00	1.000003e+00	1.000001e+00	1.000000e+00	1.000000e+00	1.000000e+00	1.000000e+00	1.000000e+00	1.000000e+00	1.000000e+00	1.000000e+00	1.000000e+00	1.000000e+00	1.000000e+00	1.000000e+00	1.000000e+00	1.000000e+00	1.000000e+00	1.000000e+00	1.000000e+00	1.000000e+00	1.000000e+00	1.000000e+00	1.000000e+00	1.000000e+00	1.000000e+00	1.000000e+00	1.000000e+00	1.000000e+00	1.000000e+00	1.000000e+00	1.000000e+00	1.000000e+00	1.000000e+00	1.000000e+00	1.000000e+00	1.000000e+00	1.000000e+00	1.000000e+00	1.000000e+00	1.034991e+00	1.033007e+00	1.029796e+00	1.024152e+00	1.017696e+00	1.012597e+00	1.010068e+00	1.009669e+00	1.013054e+00	1.018190e+00	1.023559e+00	1.026295e+00	1.025562e+00	1.024173e+00	1.021475e+00	1.016203e+00	1.007870e+00	9.996437e-01	9.951240e-01	9.934996e-01	9.930728e-01	9.930681e-01	9.933055e-01	9.937621e-01	9.944797e-01	9.954304e-01	9.966162e-01	9.980735e-01	9.998385e-01	1.001938e+00	1.004387e+00	1.007176e+00	1.010254e+00	1.013498e+00	1.016643e+00	1.019285e+00	1.020984e+00	1.021477e+00	1.021130e+00	1.019600e+00	1.017036e+00	1.013429e+00	1.008140e+00	1.001069e+00	9.947164e-01	9.916552e-01	9.913294e-01	9.944620e-01	1.001723e+00	1.010665e+00	1.019005e+00	1.024284e+00	1.025928e+00	1.026129e+00	1.025296e+00	1.021709e+00	1.014157e+00	1.005987e+00	1.001580e+00	1.000310e+00	1.000061e+00	1.000015e+00	1.000004e+00	1.000001e+00	1.000000e+00	1.000000e+00	1.000000e+00	1.000000e+00	1.000000e+00	1.000000e+00	1.000000e+00	1.000000e+00	1.000000e+00	1.000000e+00	1.000000e+00	1.000000e+00	1.000000e+00	1.000000e+00	1.000000e+00	1.000000e+00	1.000000e+00	1.000000e+00	1.000000e+00	1.000000e+00	1.000000e+00	1.000000e+00	1.000000e+00	1.000000e+00	1.000000e+00	1.000000e+00	1.000000e+00	1.000000e+00	1.000000e+00	1.000000e+00	1.000000e+00	1.000000e+00	1.000000e+00	1.000000e+00	1.000000e+00	1.000000e+00	1.000000e+00	1.029518e+00	1.027342e+00	1.024259e+00	1.018894e+00	1.014033e+00	1.011411e+00	1.010886e+00	1.013648e+00	1.018432e+00	1.023559e+00	1.028732e+00	1.032816e+00	1.033039e+00	1.031651e+00	1.029412e+00	1.025172e+00	1.017818e+00	1.008993e+00	1.002994e+00	1.000640e+00	1.000105e+00	1.000041e+00	1.000223e+00	1.000798e+00	1.001704e+00	1.002868e+00	1.004278e+00	1.005965e+00	1.007942e+00	1.010182e+00	1.012627e+00	1.015171e+00	1.017644e+00	1.019792e+00	1.021391e+00	1.022291e+00	1.022537e+00	1.022351e+00	1.021784e+00	1.019775e+00	1.015157e+00	1.007775e+00	9.992866e-01	9.924634e-01	9.887883e-01	9.877388e-01	9.884676e-01	9.925189e-01	9.993619e-01	1.007653e+00	1.016184e+00	1.022656e+00	1.025328e+00	1.025753e+00	1.025467e+00	1.023036e+00	1.016824e+00	1.008428e+00	1.002635e+00	1.000563e+00	1.000106e+00	1.000023e+00	1.000006e+00	1.000002e+00	1.000000e+00	1.000000e+00	1.000000e+00	1.000000e+00	1.000000e+00	1.000000e+00	1.000000e+00	1.000000e+00	1.000000e+00	1.000000e+00	1.000000e+00	1.000000e+00	1.000000e+00	1.000000e+00	1.000000e+00	1.000000e+00	1.000000e+00	1.000000e+00	1.000000e+00	1.000000e+00	1.000000e+00	1.000000e+00	1.000000e+00	1.000000e+00	1.000000e+00	1.000000e+00	1.000000e+00	1.000000e+00	1.000000e+00	1.000000e+00	1.000000e+00	1.000000e+00	1.000000e+00	1.000000e+00	1.000000e+00	1.000000e+00	1.000000e+00	1.015359e+00	1.013450e+00	1.014190e+00	1.012186e+00	1.010595e+00	1.009831e+00	1.010798e+00	1.014457e+00	1.019825e+00	1.026295e+00	1.032816e+00	1.038183e+00	1.040131e+00	1.039094e+00	1.037363e+00	1.034117e+00	1.028022e+00	1.019380e+00	1.012217e+00	1.009025e+00	1.008264e+00	1.008135e+00	1.008255e+00	1.008827e+00	1.009786e+00	1.010979e+00	1.012374e+00	1.013962e+00	1.015677e+00	1.017416e+00	1.019061e+00	1.020497e+00	1.021617e+00	1.022343e+00	1.022740e+00	1.022908e+00	1.022849e+00	1.022359e+00	1.020600e+00	1.016269e+00	1.008386e+00	9.987966e-01	9.913797e-01	9.875997e-01	9.863218e-01	9.862148e-01	9.875206e-01	9.912972e-01	9.972622e-01	1.004893e+00	1.013431e+00	1.020805e+00	1.024580e+00	1.025407e+00	1.025384e+00	1.023785e+00	1.018868e+00	1.010830e+00	1.003971e+00	1.000949e+00	1.000181e+00	1.000036e+00	1.000009e+00	1.000002e+00	1.000001e+00	1.000000e+00	1.000000e+00	1.000000e+00	1.000000e+00	1.000000e+00	1.000000e+00	1.000000e+00	1.000000e+00	1.000000e+00	1.000000e+00	1.000000e+00	1.000000e+00	1.000000e+00	1.000000e+00	1.000000e+00	1.000000e+00	1.000000e+00	1.000000e+00	1.000000e+00	1.000000e+00	1.000000e+00	1.000000e+00	1.000000e+00	1.000000e+00	1.000000e+00	1.000000e+00	1.000000e+00	1.000000e+00	1.000000e+00	1.000000e+00	1.000000e+00	1.000000e+00	1.000000e+00	1.000000e+00	1.000000e+00	1.000000e+00	9.996747e-01	9.978948e-01	1.002841e+00	1.005446e+00	1.007151e+00	1.008494e+00	1.010666e+00	1.014147e+00	1.019095e+00	1.025562e+00	1.033039e+00	1.040131e+00	1.044569e+00	1.044780e+00	1.043613e+00	1.041322e+00	1.036530e+00	1.028747e+00	1.021041e+00	1.017000e+00	1.015894e+00	1.015655e+00	1.015680e+00	1.016105e+00	1.016835e+00	1.017719e+00	1.018659e+00	1.019604e+00	1.020465e+00	1.021202e+00	1.021795e+00	1.022237e+00	1.022577e+00	1.022838e+00	1.022946e+00	1.022694e+00	1.021833e+00	1.019683e+00	1.015139e+00	1.007860e+00	9.993772e-01	9.922033e-01	9.879012e-01	9.861953e-01	9.857853e-01	9.859064e-01	9.871685e-01	9.902887e-01	9.954145e-01	1.002489e+00	1.010917e+00	1.018882e+00	1.023697e+00	1.025052e+00	1.025185e+00	1.024197e+00	1.020328e+00	1.012990e+00	1.005471e+00	1.001474e+00	1.000294e+00	1.000056e+00	1.000012e+00	1.000003e+00	1.000001e+00	1.000000e+00	1.000000e+00	1.000000e+00	1.000000e+00	1.000000e+00	1.000000e+00	1.000000e+00	1.000000e+00	1.000000e+00	1.000000e+00	1.000000e+00	1.000000e+00	1.000000e+00	1.000000e+00	1.000000e+00	1.000000e+00	1.000000e+00	1.000000e+00	1.000000e+00	1.000000e+00	1.000000e+00	1.000000e+00	1.000000e+00	1.000000e+00	1.000000e+00	1.000000e+00	1.000000e+00	1.000000e+00	1.000000e+00	1.000000e+00	1.000000e+00	1.000000e+00	1.000000e+00	1.000000e+00	1.000000e+00	1.000000e+00	9.896892e-01	9.880569e-01	9.924703e-01	9.970505e-01	1.001632e+00	1.005508e+00	1.008981e+00	1.012764e+00	1.017753e+00	1.024173e+00	1.031651e+00	1.039094e+00	1.044780e+00	1.046793e+00	1.046548e+00	1.045272e+00	1.041652e+00	1.034836e+00	1.027004e+00	1.022158e+00	1.020582e+00	1.020224e+00	1.020105e+00	1.020248e+00	1.020578e+00	1.020950e+00	1.021289e+00	1.021572e+00	1.021826e+00	1.022069e+00	1.022312e+00	1.022559e+00	1.022656e+00	1.022441e+00	1.021769e+00	1.020186e+00	1.017127e+00	1.012055e+00	1.005529e+00	9.991007e-01	9.939765e-01	9.901144e-01	9.873653e-01	9.861081e-01	9.858784e-01	9.859973e-01	9.869817e-01	9.894266e-01	9.938947e-01	1.000491e+00	1.008713e+00	1.017011e+00	1.022713e+00	1.024686e+00	1.024958e+00	1.024383e+00	1.021361e+00	1.014793e+00	1.007000e+00	1.002115e+00	1.000449e+00	1.000084e+00	1.000017e+00	1.000004e+00	1.000001e+00	1.000000e+00	1.000000e+00	1.000000e+00	1.000000e+00	1.000000e+00	1.000000e+00	1.000000e+00	1.000000e+00	1.000000e+00	1.000000e+00	1.000000e+00	1.000000e+00	1.000000e+00	1.000000e+00	1.000000e+00	1.000000e+00	1.000000e+00	1.000000e+00	1.000000e+00	1.000000e+00	1.000000e+00	1.000000e+00	1.000000e+00	1.000000e+00	1.000000e+00	1.000000e+00	1.000000e+00	1.000000e+00	1.000000e+00	1.000000e+00	1.000000e+00	1.000000e+00	1.000000e+00	1.000000e+00	1.000000e+00	1.000000e+00	9.859777e-01	9.845327e-01	9.859897e-01	9.889190e-01	9.934334e-01	9.985233e-01	1.003511e+00	1.008632e+00	1.014500e+00	1.021475e+00	1.029412e+00	1.037363e+00	1.043613e+00	1.046548e+00	1.046618e+00	1.045924e+00	1.043362e+00	1.037581e+00	1.029814e+00	1.024223e+00	1.022062e+00	1.021545e+00	1.021345e+00	1.021316e+00	1.021439e+00	1.021594e+00	1.021733e+00	1.021892e+00	1.022025e+00	1.022108e+00	1.022074e+00	1.021761e+00	1.021056e+00	1.019598e+00	1.017105e+00	1.013217e+00	1.008093e+00	1.002684e+00	9.981876e-01	9.950292e-01	9.926301e-01	9.902326e-01	9.878190e-01	9.863770e-01	9.860737e-01	9.861323e-01	9.867889e-01	9.887607e-01	9.927223e-01	9.988814e-01	1.006838e+00	1.015286e+00	1.021687e+00	1.024307e+00	1.024726e+00	1.024425e+00	1.022037e+00	1.016228e+00	1.008437e+00	1.002823e+00	1.000642e+00	1.000121e+00	1.000024e+00	1.000006e+00	1.000001e+00	1.000000e+00	1.000000e+00	1.000000e+00	1.000000e+00	1.000000e+00	1.000000e+00	1.000000e+00	1.000000e+00	1.000000e+00	1.000000e+00	1.000000e+00	1.000000e+00	1.000000e+00	1.000000e+00	1.000000e+00	1.000000e+00	1.000000e+00	1.000000e+00	1.000000e+00	1.000000e+00	1.000000e+00	1.000000e+00	1.000000e+00	1.000000e+00	1.000000e+00	1.000000e+00	1.000000e+00	1.000000e+00	1.000000e+00	1.000000e+00	1.000000e+00	1.000000e+00	1.000000e+00	1.000000e+00	1.000000e+00	1.000000e+00	9.854131e-01	9.841290e-01	9.840144e-01	9.842398e-01	9.864651e-01	9.899992e-01	9.948388e-01	1.000851e+00	1.008022e+00	1.016203e+00	1.025172e+00	1.034117e+00	1.041322e+00	1.045272e+00	1.045924e+00	1.045433e+00	1.043406e+00	1.038330e+00	1.030893