# vtk DataFile Version 3.0
vtk output
ASCII
DATASET STRUCTURED_GRID
DIMENSIONS 101 101 1
POINTS 10201 double
0.000000e+00	0.000000e+00	0.0	1.000000e-02	0.000000e+00	0.0	2.000000e-02	0.000000e+00	0.0	3.000000e-02	0.000000e+00	0.0	4.000000e-02	0.000000e+00	0.0	5.000000e-02	0.000000e+00	0.0	6.000000e-02	0.000000e+00	0.0	7.000000e-02	0.000000e+00	0.0	8.000000e-02	0.000000e+00	0.0	9.000000e-02	0.000000e+00	0.0	1.000000e-01	0.000000e+00	0.0	1.100000e-01	0.000000e+00	0.0	1.200000e-01	0.000000e+00	0.0	1.300000e-01	0.000000e+00	0.0	1.400000e-01	0.000000e+00	0.0	1.500000e-01	0.000000e+00	0.0	1.600000e-01	0.000000e+00	0.0	1.700000e-01	0.000000e+00	0.0	1.800000e-01	0.000000e+00	0.0	1.900000e-01	0.000000e+00	0.0	2.000000e-01	0.000000e+00	0.0	2.100000e-01	0.000000e+00	0.0	2.200000e-01	0.000000e+00	0.0	2.300000e-01	0.000000e+00	0.0	2.400000e-01	0.000000e+00	0.0	2.500000e-01	0.000000e+00	0.0	2.600000e-01	0.000000e+00	0.0	2.700000e-01	0.000000e+00	0.0	2.800000e-01	0.000000e+00	0.0	2.900000e-01	0.000000e+00	0.0	3.000000e-01	0.000000e+00	0.0	3.100000e-01	0.000000e+00	0.0	3.200000e-01	0.000000e+00	0.0	3.300000e-01	0.000000e+00	0.0	3.400000e-01	0.000000e+00	0.0	3.500000e-01	0.000000e+00	0.0	3.600000e-01	0.000000e+00	0.0	3.700000e-01	0.000000e+00	0.0	3.800000e-01	0.000000e+00	0.0	3.900000e-01	0.000000e+00	0.0	4.000000e-01	0.000000e+00	0.0	4.100000e-01	0.000000e+00	0.0	4.200000e-01	0.000000e+00	0.0	4.300000e-01	0.000000e+00	0.0	4.400000e-01	0.000000e+00	0.0	4.500000e-01	0.000000e+00	0.0	4.600000e-01	0.000000e+00	0.0	4.700000e-01	0.000000e+00	0.0	4.800000e-01	0.000000e+00	0.0	4.900000e-01	0.000000e+00	0.0	5.000000e-01	0.000000e+00	0.0	5.100000e-01	0.000000e+00	0.0	5.200000e-01	0.000000e+00	0.0	5.300000e-01	0.000000e+00	0.0	5.400000e-01	0.000000e+00	0.0	5.500000e-01	0.000000e+00	0.0	5.600000e-01	0.000000e+00	0.0	5.700000e-01	0.000000e+00	0.0	5.800000e-01	0.000000e+00	0.0	5.900000e-01	0.000000e+00	0.0	6.000000e-01	0.000000e+00	0.0	6.100000e-01	0.000000e+00	0.0	6.200000e-01	0.000000e+00	0.0	6.300000e-01	0.000000e+00	0.0	6.400000e-01	0.000000e+00	0.0	6.500000e-01	0.000000e+00	0.0	6.600000e-01	0.000000e+00	0.0	6.700000e-01	0.000000e+00	0.0	6.800000e-01	0.000000e+00	0.0	6.900000e-01	0.000000e+00	0.0	7.000000e-01	0.000000e+00	0.0	7.100000e-01	0.000000e+00	0.0	7.200000e-01	0.000000e+00	0.0	7.300000e-01	0.000000e+00	0.0	7.400000e-01	0.000000e+00	0.0	7.500000e-01	0.000000e+00	0.0	7.600000e-01	0.000000e+00	0.0	7.700000e-01	0.000000e+00	0.0	7.800000e-01	0.000000e+00	0.0	7.900000e-01	0.000000e+00	0.0	8.000000e-01	0.000000e+00	0.0	8.100000e-01	0.000000e+00	0.0	8.200000e-01	0.000000e+00	0.0	8.300000e-01	0.000000e+00	0.0	8.400000e-01	0.000000e+00	0.0	8.500000e-01	0.000000e+00	0.0	8.600000e-01	0.000000e+00	0.0	8.700000e-01	0.000000e+00	0.0	8.800000e-01	0.000000e+00	0.0	8.900000e-01	0.000000e+00	0.0	9.000000e-01	0.000000e+00	0.0	9.100000e-01	0.000000e+00	0.0	9.200000e-01	0.000000e+00	0.0	9.300000e-01	0.000000e+00	0.0	9.400000e-01	0.000000e+00	0.0	9.500000e-01	0.000000e+00	0.0	9.600000e-01	0.000000e+00	0.0	9.700000e-01	0.000000e+00	0.0	9.800000e-01	0.000000e+00	0.0	9.900000e-01	0.000000e+00	0.0	1.000000e+00	0.000000e+00	0.0	0.000000e+00	1.000000e-02	0.0	1.000000e-02	1.000000e-02	0.0	2.000000e-02	1.000000e-02	0.0	3.000000e-02	1.000000e-02	0.0	4.000000e-02	1.000000e-02	0.0	5.000000e-02	1.000000e-02	0.0	6.000000e-02	1.000000e-02	0.0	7.000000e-02	1.000000e-02	0.0	8.000000e-02	1.000000e-02	0.0	9.000000e-02	1.000000e-02	0.0	1.000000e-01	1.000000e-02	0.0	1.100000e-01	1.000000e-02	0.0	1.200000e-01	1.000000e-02	0.0	1.300000e-01	1.000000e-02	0.0	1.400000e-01	1.000000e-02	0.0	1.500000e-01	1.000000e-02	0.0	1.600000e-01	1.000000e-02	0.0	1.700000e-01	1.000000e-02	0.0	1.800000e-01	1.000000e-02	0.0	1.900000e-01	1.000000e-02	0.0	2.000000e-01	1.000000e-02	0.0	2.100000e-01	1.000000e-02	0.0	2.200000e-01	1.000000e-02	0.0	2.300000e-01	1.000000e-02	0.0	2.400000e-01	1.000000e-02	0.0	2.500000e-01	1.000000e-02	0.0	2.600000e-01	1.000000e-02	0.0	2.700000e-01	1.000000e-02	0.0	2.800000e-01	1.000000e-02	0.0	2.900000e-01	1.000000e-02	0.0	3.000000e-01	1.000000e-02	0.0	3.100000e-01	1.000000e-02	0.0	3.200000e-01	1.000000e-02	0.0	3.300000e-01	1.000000e-02	0.0	3.400000e-01	1.000000e-02	0.0	3.500000e-01	1.000000e-02	0.0	3.600000e-01	1.000000e-02	0.0	3.700000e-01	1.000000e-02	0.0	3.800000e-01	1.000000e-02	0.0	3.900000e-01	1.000000e-02	0.0	4.000000e-01	1.000000e-02	0.0	4.100000e-01	1.000000e-02	0.0	4.200000e-01	1.000000e-02	0.0	4.300000e-01	1.000000e-02	0.0	4.400000e-01	1.000000e-02	0.0	4.500000e-01	1.000000e-02	0.0	4.600000e-01	1.000000e-02	0.0	4.700000e-01	1.000000e-02	0.0	4.800000e-01	1.000000e-02	0.0	4.900000e-01	1.000000e-02	0.0	5.000000e-01	1.000000e-02	0.0	5.100000e-01	1.000000e-02	0.0	5.200000e-01	1.000000e-02	0.0	5.300000e-01	1.000000e-02	0.0	5.400000e-01	1.000000e-02	0.0	5.500000e-01	1.000000e-02	0.0	5.600000e-01	1.000000e-02	0.0	5.700000e-01	1.000000e-02	0.0	5.800000e-01	1.000000e-02	0.0	5.900000e-01	1.000000e-02	0.0	6.000000e-01	1.000000e-02	0.0	6.100000e-01	1.000000e-02	0.0	6.200000e-01	1.000000e-02	0.0	6.300000e-01	1.000000e-02	0.0	6.400000e-01	1.000000e-02	0.0	6.500000e-01	1.000000e-02	0.0	6.600000e-01	1.000000e-02	0.0	6.700000e-01	1.000000e-02	0.0	6.800000e-01	1.000000e-02	0.0	6.900000e-01	1.000000e-02	0.0	7.000000e-01	1.000000e-02	0.0	7.100000e-01	1.000000e-02	0.0	7.200000e-01	1.000000e-02	0.0	7.300000e-01	1.000000e-02	0.0	7.400000e-01	1.000000e-02	0.0	7.500000e-01	1.000000e-02	0.0	7.600000e-01	1.000000e-02	0.0	7.700000e-01	1.000000e-02	0.0	7.800000e-01	1.000000e-02	0.0	7.900000e-01	1.000000e-02	0.0	8.000000e-01	1.000000e-02	0.0	8.100000e-01	1.000000e-02	0.0	8.200000e-01	1.000000e-02	0.0	8.300000e-01	1.000000e-02	0.0	8.400000e-01	1.000000e-02	0.0	8.500000e-01	1.000000e-02	0.0	8.600000e-01	1.000000e-02	0.0	8.700000e-01	1.000000e-02	0.0	8.800000e-01	1.000000e-02	0.0	8.900000e-01	1.000000e-02	0.0	9.000000e-01	1.000000e-02	0.0	9.100000e-01	1.000000e-02	0.0	9.200000e-01	1.000000e-02	0.0	9.300000e-01	1.000000e-02	0.0	9.400000e-01	1.000000e-02	0.0	9.500000e-01	1.000000e-02	0.0	9.600000e-01	1.000000e-02	0.0	9.700000e-01	1.000000e-02	0.0	9.800000e-01	1.000000e-02	0.0	9.900000e-01	1.000000e-02	0.0	1.000000e+00	1.000000e-02	0.0	0.000000e+00	2.000000e-02	0.0	1.000000e-02	2.000000e-02	0.0	2.000000e-02	2.000000e-02	0.0	3.000000e-02	2.000000e-02	0.0	4.000000e-02	2.000000e-02	0.0	5.000000e-02	2.000000e-02	0.0	6.000000e-02	2.000000e-02	0.0	7.000000e-02	2.000000e-02	0.0	8.000000e-02	2.000000e-02	0.0	9.000000e-02	2.000000e-02	0.0	1.000000e-01	2.000000e-02	0.0	1.100000e-01	2.000000e-02	0.0	1.200000e-01	2.000000e-02	0.0	1.300000e-01	2.000000e-02	0.0	1.400000e-01	2.000000e-02	0.0	1.500000e-01	2.000000e-02	0.0	1.600000e-01	2.000000e-02	0.0	1.700000e-01	2.000000e-02	0.0	1.800000e-01	2.000000e-02	0.0	1.900000e-01	2.000000e-02	0.0	2.000000e-01	2.000000e-02	0.0	2.100000e-01	2.000000e-02	0.0	2.200000e-01	2.000000e-02	0.0	2.300000e-01	2.000000e-02	0.0	2.400000e-01	2.000000e-02	0.0	2.500000e-01	2.000000e-02	0.0	2.600000e-01	2.000000e-02	0.0	2.700000e-01	2.000000e-02	0.0	2.800000e-01	2.000000e-02	0.0	2.900000e-01	2.000000e-02	0.0	3.000000e-01	2.000000e-02	0.0	3.100000e-01	2.000000e-02	0.0	3.200000e-01	2.000000e-02	0.0	3.300000e-01	2.000000e-02	0.0	3.400000e-01	2.000000e-02	0.0	3.500000e-01	2.000000e-02	0.0	3.600000e-01	2.000000e-02	0.0	3.700000e-01	2.000000e-02	0.0	3.800000e-01	2.000000e-02	0.0	3.900000e-01	2.000000e-02	0.0	4.000000e-01	2.000000e-02	0.0	4.100000e-01	2.000000e-02	0.0	4.200000e-01	2.000000e-02	0.0	4.300000e-01	2.000000e-02	0.0	4.400000e-01	2.000000e-02	0.0	4.500000e-01	2.000000e-02	0.0	4.600000e-01	2.000000e-02	0.0	4.700000e-01	2.000000e-02	0.0	4.800000e-01	2.000000e-02	0.0	4.900000e-01	2.000000e-02	0.0	5.000000e-01	2.000000e-02	0.0	5.100000e-01	2.000000e-02	0.0	5.200000e-01	2.000000e-02	0.0	5.300000e-01	2.000000e-02	0.0	5.400000e-01	2.000000e-02	0.0	5.500000e-01	2.000000e-02	0.0	5.600000e-01	2.000000e-02	0.0	5.700000e-01	2.000000e-02	0.0	5.800000e-01	2.000000e-02	0.0	5.900000e-01	2.000000e-02	0.0	6.000000e-01	2.000000e-02	0.0	6.100000e-01	2.000000e-02	0.0	6.200000e-01	2.000000e-02	0.0	6.300000e-01	2.000000e-02	0.0	6.400000e-01	2.000000e-02	0.0	6.500000e-01	2.000000e-02	0.0	6.600000e-01	2.000000e-02	0.0	6.700000e-01	2.000000e-02	0.0	6.800000e-01	2.000000e-02	0.0	6.900000e-01	2.000000e-02	0.0	7.000000e-01	2.000000e-02	0.0	7.100000e-01	2.000000e-02	0.0	7.200000e-01	2.000000e-02	0.0	7.300000e-01	2.000000e-02	0.0	7.400000e-01	2.000000e-02	0.0	7.500000e-01	2.000000e-02	0.0	7.600000e-01	2.000000e-02	0.0	7.700000e-01	2.000000e-02	0.0	7.800000e-01	2.000000e-02	0.0	7.900000e-01	2.000000e-02	0.0	8.000000e-01	2.000000e-02	0.0	8.100000e-01	2.000000e-02	0.0	8.200000e-01	2.000000e-02	0.0	8.300000e-01	2.000000e-02	0.0	8.400000e-01	2.000000e-02	0.0	8.500000e-01	2.000000e-02	0.0	8.600000e-01	2.000000e-02	0.0	8.700000e-01	2.000000e-02	0.0	8.800000e-01	2.000000e-02	0.0	8.900000e-01	2.000000e-02	0.0	9.000000e-01	2.000000e-02	0.0	9.100000e-01	2.000000e-02	0.0	9.200000e-01	2.000000e-02	0.0	9.300000e-01	2.000000e-02	0.0	9.400000e-01	2.000000e-02	0.0	9.500000e-01	2.000000e-02	0.0	9.600000e-01	2.000000e-02	0.0	9.700000e-01	2.000000e-02	0.0	9.800000e-01	2.000000e-02	0.0	9.900000e-01	2.000000e-02	0.0	1.000000e+00	2.000000e-02	0.0	0.000000e+00	3.000000e-02	0.0	1.000000e-02	3.000000e-02	0.0	2.000000e-02	3.000000e-02	0.0	3.000000e-02	3.000000e-02	0.0	4.000000e-02	3.000000e-02	0.0	5.000000e-02	3.000000e-02	0.0	6.000000e-02	3.000000e-02	0.0	7.000000e-02	3.000000e-02	0.0	8.000000e-02	3.000000e-02	0.0	9.000000e-02	3.000000e-02	0.0	1.000000e-01	3.000000e-02	0.0	1.100000e-01	3.000000e-02	0.0	1.200000e-01	3.000000e-02	0.0	1.300000e-01	3.000000e-02	0.0	1.400000e-01	3.000000e-02	0.0	1.500000e-01	3.000000e-02	0.0	1.600000e-01	3.000000e-02	0.0	1.700000e-01	3.000000e-02	0.0	1.800000e-01	3.000000e-02	0.0	1.900000e-01	3.000000e-02	0.0	2.000000e-01	3.000000e-02	0.0	2.100000e-01	3.000000e-02	0.0	2.200000e-01	3.000000e-02	0.0	2.300000e-01	3.000000e-02	0.0	2.400000e-01	3.000000e-02	0.0	2.500000e-01	3.000000e-02	0.0	2.600000e-01	3.000000
[...]
POINT_DATA 10201

SCALARS Height double 1
LOOKUP_TABLE default
9.967519e-01	9.967505e-01	9.967600e-01	9.967393e-01	9.967186e-01	9.966886e-01	9.966484e-01	9.966007e-01	9.965500e-01	9.964938e-01	9.964326e-01	9.963658e-01	9.962901e-01	9.962046e-01	9.961076e-01	9.959968e-01	9.958694e-01	9.957236e-01	9.955531e-01	9.953578e-01	9.951311e-01	9.948647e-01	9.945555e-01	9.941837e-01	9.937053e-01	9.930359e-01	9.920487e-01	9.906091e-01	9.886869e-01	9.864581e-01	9.843219e-01	9.827135e-01	9.818008e-01	9.815333e-01	9.818717e-01	9.835891e-01	9.871845e-01	9.925355e-01	9.992361e-01	1.006772e+00	1.014517e+00	1.021636e+00	1.027202e+00	1.030662e+00	1.032010e+00	1.031620e+00	1.027769e+00	1.018997e+00	1.008862e+00	1.002011e+00	9.989246e-01	9.978565e-01	9.975342e-01	9.974342e-01	9.973855e-01	9.973329e-01	9.972496e-01	9.971229e-01	9.969530e-01	9.967477e-01	9.965124e-01	9.962485e-01	9.959519e-01	9.956042e-01	9.951631e-01	9.945519e-01	9.936493e-01	9.923096e-01	9.904624e-01	9.882383e-01	9.860212e-01	9.842757e-01	9.832218e-01	9.828318e-01	9.830042e-01	9.844091e-01	9.877050e-01	9.928769e-01	9.995680e-01	1.007234e+00	1.015209e+00	1.022633e+00	1.028556e+00	1.032336e+00	1.033943e+00	1.033783e+00	1.030371e+00	1.021899e+00	1.011612e+00	1.004544e+00	1.001416e+00	1.000385e+00	1.000097e+00	1.000023e+00	1.000006e+00	1.000001e+00	1.000000e+00	1.000000e+00	1.000000e+00	1.000000e+00	1.000000e+00	9.967505e-01	9.967417e-01	9.967523e-01	9.967307e-01	9.967089e-01	9.966779e-01	9.966381e-01	9.965904e-01	9.965384e-01	9.964804e-01	9.964169e-01	9.963474e-01	9.962690e-01	9.961808e-01	9.960809e-01	9.959670e-01	9.958361e-01	9.956870e-01	9.955117e-01	9.953122e-01	9.950823e-01	9.948148e-01	9.945047e-01	9.941306e-01	9.936459e-01	9.929639e-01	9.919618e-01	9.905108e-01	9.885798e-01	9.863434e-01	9.841702e-01	9.824923e-01	9.816689e-01	9.815653e-01	9.819233e-01	9.836130e-01	9.872178e-01	9.926014e-01	9.993527e-01	1.006922e+00	1.014682e+00	1.021871e+00	1.027675e+00	1.031141e+00	1.031990e+00	1.031531e+00	1.027938e+00	1.019396e+00	1.008826e+00	1.001567e+00	9.985798e-01	9.977024e-01	9.974748e-01	9.974045e-01	9.973631e-01	9.973127e-01	9.972303e-01	9.971030e-01	9.969313e-01	9.967233e-01	9.964855e-01	9.962187e-01	9.959178e-01	9.955645e-01	9.951151e-01	9.944916e-01	9.935736e-01	9.922215e-01	9.903631e-01	9.881285e-01	9.858750e-01	9.840513e-01	9.830484e-01	9.828345e-01	9.830515e-01	9.844364e-01	9.877360e-01	9.929410e-01	9.996764e-01	1.007377e+00	1.015371e+00	1.022858e+00	1.029010e+00	1.032868e+00	1.033988e+00	1.033686e+00	1.030527e+00	1.022346e+00	1.011622e+00	1.004085e+00	1.001059e+00	1.000238e+00	1.000052e+00	1.000011e+00	1.000003e+00	1.000001e+00	1.000000e+00	1.000000e+00	1.000000e+00	1.000000e+00	1.000000e+00	9.967600e-01	9.967523e-01	9.967636e-01	9.967392e-01	9.967167e-01	9.966854e-01	9.966450e-01	9.965956e-01	9.965427e-01	9.964844e-01	9.964204e-01	9.963500e-01	9.962705e-01	9.961814e-01	9.960812e-01	9.959671e-01	9.958366e-01	9.956884e-01	9.955134e-01	9.953153e-01	9.950863e-01	9.948156e-01	9.944982e-01	9.941103e-01	9.936001e-01	9.928785e-01	9.918363e-01	9.903801e-01	9.885007e-01	9.863533e-01	9.842429e-01	9.826690e-01	9.820358e-01	9.819640e-01	9.823624e-01	9.840300e-01	9.875671e-01	9.928945e-01	9.994895e-01	1.006867e+00	1.014468e+00	1.021676e+00	1.027514e+00	1.030569e+00	1.031196e+00	1.030706e+00	1.027444e+00	1.019575e+00	1.009358e+00	1.001922e+00	9.986958e-01	9.977305e-01	9.974803e-01	9.974031e-01	9.973592e-01	9.973086e-01	9.972282e-01	9.971035e-01	9.969334e-01	9.967261e-01	9.964883e-01	9.962199e-01	9.959130e-01	9.955471e-01	9.950778e-01	9.944228e-01	9.934679e-01	9.921003e-01	9.902775e-01	9.881212e-01	9.859276e-01	9.841831e-01	9.833745e-01	9.832375e-01	9.834887e-01	9.848868e-01	9.881232e-01	9.932772e-01	9.998473e-01	1.007335e+00	1.015146e+00	1.022632e+00	1.028856e+00	1.032360e+00	1.033171e+00	1.032830e+00	1.029974e+00	1.022467e+00	1.012186e+00	1.004459e+00	1.001144e+00	1.000232e+00	1.000042e+00	1.000008e+00	1.000001e+00	1.000000e+00	1.000000e+00	1.000000e+00	1.000000e+00	1.000000e+00	1.000000e+00	9.967393e-01	9.967307e-01	9.967392e-01	9.967148e-01	9.966918e-01	9.966612e-01	9.966225e-01	9.965750e-01	9.965234e-01	9.964663e-01	9.964026e-01	9.963315e-01	9.962511e-01	9.961610e-01	9.960595e-01	9.959437e-01	9.958108e-01	9.956600e-01	9.954824e-01	9.952811e-01	9.950487e-01	9.947728e-01	9.944441e-01	9.940322e-01	9.934789e-01	9.926981e-01	9.915855e-01	9.900820e-01	9.882134e-01	9.861150e-01	9.841343e-01	9.828401e-01	9.824009e-01	9.823849e-01	9.828930e-01	9.846944e-01	9.882735e-01	9.935238e-01	9.999637e-01	1.007140e+00	1.014644e+00	1.021890e+00	1.027466e+00	1.029953e+00	1.030342e+00	1.029775e+00	1.026571e+00	1.019156e+00	1.009623e+00	1.002399e+00	9.989751e-01	9.978186e-01	9.974893e-01	9.973865e-01	9.973329e-01	9.972783e-01	9.971970e-01	9.970730e-01	9.969031e-01	9.966946e-01	9.964544e-01	9.961813e-01	9.958638e-01	9.954764e-01	9.949718e-01	9.942629e-01	9.932405e-01	9.918165e-01	9.899873e-01	9.878625e-01	9.857645e-01	9.842854e-01	9.837196e-01	9.836417e-01	9.839994e-01	9.855580e-01	9.888849e-01	9.939682e-01	1.000379e+00	1.007643e+00	1.015320e+00	1.022852e+00	1.028875e+00	1.031775e+00	1.032327e+00	1.031904e+00	1.029079e+00	1.022048e+00	1.012482e+00	1.004943e+00	1.001398e+00	1.000307e+00	1.000057e+00	1.000010e+00	1.000002e+00	1.000000e+00	1.000000e+00	1.000000e+00	1.000000e+00	1.000000e+00	1.000000e+00	9.967186e-01	9.967089e-01	9.967167e-01	9.966918e-01	9.966671e-01	9.966354e-01	9.965974e-01	9.965506e-01	9.964989e-01	9.964412e-01	9.963759e-01	9.963026e-01	9.962203e-01	9.961288e-01	9.960258e-01	9.959079e-01	9.957724e-01	9.956180e-01	9.954384e-01	9.952329e-01	9.949963e-01	9.947122e-01	9.943650e-01	9.939159e-01	9.933020e-01	9.924432e-01	9.912510e-01	9.896882e-01	9.878132e-01	9.858022e-01	9.840952e-01	9.831632e-01	9.829001e-01	9.829551e-01	9.836017e-01	9.855786e-01	9.892500e-01	9.943981e-01	1.000599e+00	1.007536e+00	1.014978e+00	1.022104e+00	1.027093e+00	1.029046e+00	1.029269e+00	1.028609e+00	1.025378e+00	1.018467e+00	1.009846e+00	1.003055e+00	9.994315e-01	9.979964e-01	9.975267e-01	9.973742e-01	9.973030e-01	9.972407e-01	9.971569e-01	9.970335e-01	9.968643e-01	9.966545e-01	9.964103e-01	9.961294e-01	9.957967e-01	9.953793e-01	9.948183e-01	9.940354e-01	9.929315e-01	9.914389e-01	9.895799e-01	9.875068e-01	9.856535e-01	9.845617e-01	9.841956e-01	9.841982e-01	9.846971e-01	9.864490e-01	9.899095e-01	9.949311e-01	1.001105e+00	1.008084e+00	1.015662e+00	1.023100e+00	1.028593e+00	1.030915e+00	1.031241e+00	1.030743e+00	1.027887e+00	1.021339e+00	1.012699e+00	1.005612e+00	1.001836e+00	1.000458e+00	1.000091e+00	1.000015e+00	1.000002e+00	1.000000e+00	1.000000e+00	1.000000e+00	1.000000e+00	1.000000e+00	1.000000e+00	9.966886e-01	9.966779e-01	9.966854e-01	9.966612e-01	9.966354e-01	9.966032e-01	9.965660e-01	9.965203e-01	9.964683e-01	9.964099e-01	9.963431e-01	9.962676e-01	9.961832e-01	9.960893e-01	9.959833e-01	9.958616e-01	9.957218e-01	9.955624e-01	9.953794e-01	9.951683e-01	9.949250e-01	9.946273e-01	9.942531e-01	9.937544e-01	9.930627e-01	9.920954e-01	9.908036e-01	9.891805e-01	9.873074e-01	9.854800e-01	9.841681e-01	9.835840e-01	9.835039e-01	9.836526e-01	9.845117e-01	9.867205e-01	9.904828e-01	9.954919e-01	1.001412e+00	1.008127e+00	1.015446e+00	1.022210e+00	1.026504e+00	1.027912e+00	1.028018e+00	1.027203e+00	1.023902e+00	1.017544e+00	1.009994e+00	1.003817e+00	1.000043e+00	9.982612e-01	9.975894e-01	9.973615e-01	9.972645e-01	9.971915e-01	9.971036e-01	9.969797e-01	9.968113e-01	9.966001e-01	9.963502e-01	9.960583e-01	9.957034e-01	9.952414e-01	9.946065e-01	9.937152e-01	9.924996e-01	9.909280e-01	9.890449e-01	9.871179e-01	9.856465e-01	9.849354e-01	9.847905e-01	9.848780e-01	9.855886e-01	9.875963e-01	9.911933e-01	9.961193e-01	1.002003e+00	1.008728e+00	1.016170e+00	1.023285e+00	1.028051e+00	1.029806e+00	1.029985e+00	1.029356e+00	1.026422e+00	1.020393e+00	1.012832e+00	1.006394e+00	1.002450e+00	1.000703e+00	1.000153e+00	1.000027e+00	1.000004e+00	1.000001e+00	1.000000e+00	1.000000e+00	1.000000e+00	1.000000e+00	1.000000e+00	9.966484e-01	9.966381e-01	9.966450e-01	9.966225e-01	9.965974e-01	9.965660e-01	9.965299e-01	9.964849e-01	9.964322e-01	9.963730e-01	9.963050e-01	9.962276e-01	9.961404e-01	9.960425e-01	9.959315e-01	9.958041e-01	9.956582e-01	9.954926e-01	9.953037e-01	9.950843e-01	9.948297e-01	9.945141e-01	9.941037e-01	9.935371e-01	9.927403e-01	9.916491e-01	9.902347e-01	9.885393e-01	9.867409e-01	9.852297e-01	9.843992e-01	9.841526e-01	9.841830e-01	9.845011e-01	9.856460e-01	9.881106e-01	9.919326e-01	9.967721e-01	1.002408e+00	1.008901e+00	1.015941e+00	1.022098e+00	1.025636e+00	1.026584e+00	1.026578e+00	1.025568e+00	1.022221e+00	1.016503e+00	1.010104e+00	1.004636e+00	1.000787e+00	9.986212e-01	9.976873e-01	9.973529e-01	9.972192e-01	9.971320e-01	9.970378e-01	9.969115e-01	9.967422e-01	9.965290e-01	9.962724e-01	9.959639e-01	9.955740e-01	9.950514e-01	9.943203e-01	9.933039e-01	9.919532e-01	9.902809e-01	9.884303e-01	9.867833e-01	9.858045e-01	9.854632e-01	9.854618e-01	9.857040e-01	9.867049e-01	9.889994e-01	9.927055e-01	9.974994e-01	1.003103e+00	1.009574e+00	1.016735e+00	1.023270e+00	1.027280e+00	1.028488e+00	1.028547e+00	1.027741e+00	1.024750e+00	1.019306e+00	1.012903e+00	1.007231e+00	1.003206e+00	1.001049e+00	1.000248e+00	1.000045e+00	1.000007e+00	1.000001e+00	1.000000e+00	1.000000e+00	1.000000e+00	1.000000e+00	1.000000e+00	9.966007e-01	9.965904e-01	9.965956e-01	9.965750e-01	9.965506e-01	9.965203e-01	9.964849e-01	9.964403e-01	9.963870e-01	9.963278e-01	9.962599e-01	9.961816e-01	9.960923e-01	9.959902e-01	9.958735e-01	9.957392e-01	9.955854e-01	9.954106e-01	9.952145e-01	9.949831e-01	9.947148e-01	9.943684e-01	9.938989e-01	9.932419e-01	9.923181e-01	9.910795e-01	9.895336e-01	9.877929e-01	9.861951e-01	9.851708e-01	9.847839e-01	9.847999e-01	9.849502e-01	9.855407e-01	9.870342e-01	9.897377e-01	9.935614e-01	9.982227e-01	1.003615e+00	1.009804e+00	1.016352e+00	1.021697e+00	1.024460e+00	1.025052e+00	1.024937e+00	1.023721e+00	1.020412e+00	1.015444e+00	1.010198e+00	1.005462e+00	1.001611e+00	9.990635e-01	9.978220e-01	9.973514e-01	9.971701e-01	9.970655e-01	9.969634e-01	9.968334e-01	9.966611e-01	9.964437e-01	9.961772e-01	9.958428e-01	9.954043e-01	9.947951e-01	9.939371e-01	9.927655e-01	9.912627e-01	9.895127e-01	9.878119e-01	9.866226e-01	9.861300e-01	9.861007e-01	9.862067e-01	9.867130e-01	9.880762e-01	9.906530e-01	9.944074e-01	9.990490e-01	1.004416e+00	1.010580e+00	1.017242e+00	1.022984e+00	1.026181e+00	1.026967e+00	1.026921e+00	1.025927e+00	1.022948e+00	1.018194e+00	1.012954e+00	1.008077e+00	1.004060e+00	1.001489e+00	1.000382e+00	1.000072e+00	1.000011e+00	1.000002e+00	1.000000e+00	1.000000e+00	1.000000e+00	1.000000e+00	1.000000e+00	9.965500e-01	9.965384e-01	9.965427e-01	9.965234e-01	9.964989e-01	9.964683e-01	9.964322e-01	9.963870e-01	9.963326e-01	9.962725e-01	9.962036e-01	9.961237e-01	9.960319e-01	9.959257e-01	9.958032e-01	9.956626e-01	9.955005e-01	9.953153e-01	9.951075e-01	9.948657e-01	9.945728e-01	9.941798e-01	9.936344e-01	9.928528e-01	9.917689e-01	9.903554e-01	9.886797e-01	9.870138e-01	9.858193e-01	9.853562e-01	9.853384e-01	9.854717e-01	9.858682e-01	9.868234e-01	9.886819e-01	9.915728e-01	9.953436e-01	9.998266e-01	1.004998e+00	1.010762e+00	1.016547e+00	1.021019e+00	1.023009e+00	1.023327e+00	1.023089e+00	1.021705e+00	1.018574e+00	1.014459e+00	1.010306e+00	1.006268e+00	1.002467e+00	9.995606e-01	9.979811e-01	9.973500e-01	9.971118e-01	9.969867e-01	9.968773e-01	9.967439e-01	9.965685e-01	9.963439e-01	9.960610e-01	9.956922e-01	9.951817e-01	9.944553e-01	9.934359e-01	9.920769e-01	9.904187e-01	9.886764e-01	9.873201e-01	9.867450e-01	9.866520e-01	9.867506e-01	9.870909e-01	9.879587e-01	9.897141e-01	9.925294e-01	9.962724e-01	1.000750e+00	1.005906e+00	1.011662e+00	1.017573e+00	1.022399e+00	1.024797e+00	1.025263e+00	1.025103e+00	1.023950e+00	1.021103e+00	1.017145e+00	1.013014e+00	1.008901e+00	1.004963e+00	1.002005e+00	1.000553e+00	1.000109e+00	1.000017e+00	1.000002e+00	1.000000e+00	1.000000e+00	1.000000e+00	1.000000e+00	1.000000e+00	9.964938e-01	9.964804e-01	9.964844e-01	9.964663e-01	9.964412e-01	9.964099e-01	9.963730e-01	9.963278e-01	9.962725e-01	9.962108e-01	9.961394e-01	9.960557e-01	9.959593e-01	9.958475e-01	9.957177e-01	9.955669e-01	9.953943e-01	9.951991e-01	9.949796e-01	9.947194e-01	9.943896e-01	9.939341e-01	9.932760e-01	9.923360e-01	9.910550e-01	9.894446e-01	9.877041e-01	9.863596e-01	9.858105e-01	9.857491e-01	9.859004e-01	9.862658e-01	9.870084e-01	9.883773e-01	9.905716e-01	9.935802e-01	9.972635e-01	1.001560e+00	1.006463e+00	1.011675e+00	1.016451e+00	1.019894e+00	1.021290e+00	1.021407e+00	1.021051e+00	1.019576e+00	1.016813e+00	1.013621e+00	1.010455e+00	1.007040e+00	1.003317e+00	1.000087e+00	9.981622e-01	9.973505e-01	9.970435e-01	9.968913e-01	9.967696e-01	9.966323e-01	9.964559e-01	9.962236e-01	9.959136e-01	9.954866e-01	9.948760e-01	9.939965e-01	9.927757e-01	9.912027e-01	9.894194e-01	9.879204e-01	9.872261e-01	9.870787e-01	9.871948e-01	9.875081e-01	9.881873e-01	9.894766e-01	9.916049e-01	9.945930e-01	9.982864e-01	1.002587e+00	1.007485e+00	1.012720e+00	1.017633e+00	1.021380e+00	1.023141e+00	1.023367e+00	1.023106e+00	1.021865e+00	1.019324e+00	1.016240e+00	1.013115e+00	1.009687e+00	1.005871e+00	1.002569e+00	1.000756e+00	1.000156e+00	1.000025e+00	1.000004e+00	1.000001e+00	1.000000e+00	1.000000e+00	1.000000e+00	1.000000e+00	9.964326e-01	9.964169e-01	9.964204e-01	9.964026e-01	9.963759e-01	9.963431e-01	9.963050e-01	9.962599e-01	9.962036e-01	9.961394e-01	9.960648e-01	9.959768e-01	9.958747e-01	9.957563e-01	9.956175e-01	9.954555e-01	9.952713e-01	9.950654e-01	9.948293e-01	9.945380e-01	9.941540e-01	9.935978e-01	9.927910e-01	9.916459e-01	9.901140e-01	9.883290e-01	9.868317e-01	9.861359e-01	9.860410e-01	9.861916e-01	9.865646e-01	9.872618e-01	9.884224e-01	9.902101e-01	9.926754e-01	9.957326e-01	9.993054e-01	1.003393e+00	1.007903e+00	1.012384e+00	1.016040e+00	1.018371e+00	1.019299e+00	1.019292e+00	1.018853e+00	1.017443e+00	1.015245e+00	1.012968e+00	1.010652e+00	1.007760e+00	1.004125e+00	1.000613e+00	9.983553e-01	9.973547e-01	9.969708e-01	9.967874e-01	9.966508e-01	9.965051e-01	9.963205e-01	9.960708e-01	9.957192e-01	9.952080e-01	9.944549e-01	9.933702e-01	9.918915e-01	9.901025e-01	9.884601e-01	9.875906e-01	9.874082e-01	9.875042e-01	9.878217e-01	9.884607e-01	9.895539e-01	9.912799e-01	9.937262e-01	9.968173e-01	1.000435e+00	1.004533e+00	1.009049e+00	1.013595e+00	1.017368e+00	1.019952e+00	1.021170e+00	1.021298e+00	1.020959e+00	1.019763e+00	1.017731e+00	1.015528e+00	1.013270e+00	1.010423e+00	1.006743e+00	1.003151e+00	1.000982e+00	1.000212e+00	1.000036e+00	1.000005e+00	1.000001e+00	1.000000e+00	1.000000e+00	1.000000e+00	1.000000e+00	9.963658e-01	9.963474e-01	9.963500e-01	9.963315e-01	9.963026e-01	9.962676e-01	9.962276e-01	9.961816e-01	9.961237e-01	9.960557e-01	9.959768e-01	9.958836e-01	9.957746e-01	9.956473e-01	9.954986e-01	9.953264e-01	9.951310e-01	9.949110e-01	9.946507e-01	9.943124e-01	9.938389e-01	9.931455e-01	9.921340e-01	9.907024e-01	9.889070e-01	9.872422e-01	9.863766e-01	9.862444e-01	9.863550e-01	9.867115e-01	9.874098e-01	9.885206e-01	9.901352e-01	9.923017e-01	9.949580e-01	9.980115e-01	1.001447e+00	1.005266e+00	1.009199e+00	1.012658e+00	1.015194e+00	1.016482e+00	1.017005e+00	1.016987e+00	1.016567e+00	1.015452e+00	1.013962e+00	1.012528e+00	1.010885e+00	1.008414e+00	1.004852e+00	1.001105e+00	9.985451e-01	9.973566e-01	9.968903e-01	9.966725e-01	9.965193e-01	9.963625e-01	9.961637e-01	9.958825e-01	9.954631e-01	9.948264e-01	9.938710e-01	9.925001e-01	9.907280e-01	9.889433e-01	9.878859e-01	9.876518e-01	9.877012e-01	9.879934e-01	9.886274e-01	9.896716e-01	9.912188e-01	9.933537e-01	9.960477e-01	9.991845e-01	1.002691e+00	1.006537e+00	1.010485e+00	1.014048e+00	1.016729e+00	1.018178e+00	1.018880e+00	1.019032e+00	1.018720e+00	1.017796e+00	1.016418e+00	1.015045e+00	1.013477e+00	1.011101e+00	1.007547e+00	1.003719e+00	1.001222e+00	1.000275e+00	1.000048e+00	1.000007e+00	1.000001e+00	1.000000e+00	1.000000e+00	1.000000e+00	1.000000e+00	9.962901e-01	9.962690e-01	9.962705e-01	9.962511e-01	9.962203e-01	9.961832e-01	9.961404e-01	9.960923e-01	9.960319e-01	9.959593e-01	9.958747e-01	9.957746e-01	9.956569e-01	9.955188e-01	9.953585e-01	9.951756e-01	9.949676e-01	9.947257e-01	9.944241e-01	9.940117e-01	9.934122e-01	9.925209e-01	9.912061e-01	9.894376e-01	9.876276e-01	9.865862e-01	9.863975e-01	9.864566e-01	9.867483e-01	9.874073e-01	9.885102e-01	9.900853e-01	9.921388e-01	9.946094e-01	9.973783e-01	1.000384e+00	1.003649e+00	1.007053e+00	1.010188e+00	1.012500e+00	1.013825e+00	1.014300e+00	1.014445e+00	1.014513e+00	1.014306e+00	1.013770e+00	1.013022e+00	1.012277e+00	1.011142e+00	1.008985e+00	1.005472e+00	1.001538e+00	9.987177e-01	9.973523e-01	9.967999e-01	9.965436e-01	9.963702e-01	9.961969e-01	9.959717e-01	9.956363e-01	9.951096e-01	9.942815e-01	9.930281e-01	9.912984e-01	9.894055e-01	9.881644e-01	9.878361e-01	9.878417e-01	9.880676e-01	9.886546e-01	9.896866e-01	9.911864e-01	9.931839e-01	9.956656e-01	9.985295e-01	1.001665e+00	1.005021e+00	1.008470e+00	1.011637e+00	1.014008e+00	1.015509e+00	1.016117e+00	1.016346e+00	1.016555e+00	1.016502e+00	1.016116e+00	1.015459e+00	1.014766e+00	1.013725e+00	1.011709e+00	1.008258e+00	1.004246e+00	1.001463e+00	1.000345e+00	1.000062e+00	1.000010e+00	1.000001e+00	1.000000e+00	1.000000e+00	1.000000e+00	1.000000e+00	9.962046e-01	9.961808e-01	9.961814e-01	9.961610e-01	9.961288e-01	9.960893e-01	9.960425e-01	9.959902e-01	9.959257e-01	9.958475e-01	9.957563e-01	9.956473e-01	9.955188e-01	9.953690e-01	9.951969e-01	9.950009e-01	9.947745e-01	9.944963e-01	9.941291e-01	9.936021e-01	9.928129e-01	9.916147e-01	9.899047e-01	9.879985e-01	9.867863e-01	9.865057e-01	9.865367e-01	9.867513e-01	9.873162e-01	9.883693e-01	9.899374e-01	9.919810e-01	9.944062e-01	9.970785e-01	9.998922e-01	1.002822e+00	1.005845e+00	1.008640e+00	1.010595e+00	1.011737e+00	1.011926e+00	1.011852e+00	1.011755e+00	1.011841e+00	1.012278e+00	1.012532e+00	1.012410e+00	1.012158e+00	1.011394e+00	1.009453e+00	1.005967e+00	1.001893e+00	9.988657e-01	9.973382e-01	9.966989e-01	9.964000e-01	9.962003e-01	9.959996e-01	9.957277e-01	9.952990e-01	9.945939e-01	9.934630e-01	9.918002e-01	9.898468e-01	9.884411e-01	9.879886e-01	9.879648e-01	9.881106e-01	9.886003e-01	9.895771e-01	9.910658e-01	9.930366e-01	9.954383e-01	9.981762e-01	1.001132e+00	1.004224e+00	1.007361e+00	1.010211e+00	1.012242e+00	1.013459e+00	1.013759e+00	1.013754e+00	1.013706e+00	1.013874e+00	1.014438e+00	1.014911e+00	1.014853e+00	1.014649e+00	1.013988e+00	1.012228e+00	1.008858e+00	1.004715e+00	1.001696e+00	1.000417e+00	1.000078e+00	1.000012e+00	1.000002e+00	1.000000e+00	1.000000e+00	1.000000e+00	1.000000e+00	9.961076e-01	9.960809e-01	9.960812e-01	9.960595e-01	9.960258e-01	9.959833e-01	9.959315e-01	9.958735e-01	9.958032e-01	9.957177e-01	9.956175e-01	9.954986e-01	9.953585e-01	9.951969e-01	9.950118e-01	9.947975e-01	9.945384e-01	9.942017e-01	9.937291e-01	9.930217e-01	9.919261e-01	9.902972e-01	9.883489e-01	9.869768e-01	9.865838e-01	9.866008e-01	9.867495e-01	9.872032e-01	9.881505e-01	9.896744e-01	9.917294e-01	9.941895e-01	9.968821e-01	9.996669e-01	1.002511e+00	1.005387e+00	1.007957e+00	1.009644e+00	1.010358e+00	1.010216e+00	1.009624e+00	1.009158e+00	1.008973e+00	1.009283e+00	1.010514e+00	1.011822e+00	1.012192e+00	1.012146e+00	1.011596e+00	1.009789e+00	1.006327e+00	1.002162e+00	9.989768e-01	9.973099e-01	9.965856e-01	9.962384e-01	9.960016e-01	9.957536e-01	9.953967e-01	9.948016e-01	9.937952e-01	9.922180e-01	9.902499e-01	9.887118e-01	9.881330e-01	9.880753e-01	9.881622e-01	9.885309e-01	9.893913e-01	9.908278e-01	9.928010e-01	9.952147e-01	9.979404e-01	1.000850e+00	1.003871e+00	1.006924e+00	1.009640e+00	1.011424e+00	1.012156e+00	1.012108e+00	1.011582e+00	1.011133e+00	1.010959e+00	1.011304e+00	1.012651e+00	1.014194e+00	1.014674e+00	1.014660e+00	1.014230e+00	1.012642e+00	1.009338e+00	1.005116e+00	1.001913e+00	1.000491e+00	1.000095e+00	1.000015e+00	1.000002e+00	1.000000e+00	1.000000e+00	1.000000e+00	1.000000e+00	9.959968e-01	9.959670e-01	9.959671e-01	9.959437e-01	9.959079e-01	9.958616e-01	9.958041e-01	9.957392e-01	9.956626e-01	9.955669e-01	9.954555e-01	9.953264e-01	9.951756e-01	9.950009e-01	9.947975e-01	9.945519e-01	9.942365e-01	9.938016e-01	9.931561