# vtk DataFile Version 3.0
vtk output
ASCII
DATASET STRUCTURED_GRID
DIMENSIONS 101 101 1
POINTS 10201 double
0.000000e+00	0.000000e+00	0.0	1.000000e-02	0.000000e+00	0.0	2.000000e-02	0.000000e+00	0.0	3.000000e-02	0.000000e+00	0.0	4.000000e-02	0.000000e+00	0.0	5.000000e-02	0.000000e+00	0.0	6.000000e-02	0.000000e+00	0.0	7.000000e-02	0.000000e+00	0.0	8.000000e-02	0.000000e+00	0.0	9.000000e-02	0.000000e+00	0.0	1.000000e-01	0.000000e+00	0.0	1.100000e-01	0.000000e+00	0.0	1.200000e-01	0.000000e+00	0.0	1.300000e-01	0.000000e+00	0.0	1.400000e-01	0.000000e+00	0.0	1.500000e-01	0.000000e+00	0.0	1.600000e-01	0.000000e+00	0.0	1.700000e-01	0.000000e+00	0.0	1.800000e-01	0.000000e+00	0.0	1.900000e-01	0.000000e+00	0.0	2.000000e-01	0.000000e+00	0.0	2.100000e-01	0.000000e+00	0.0	2.200000e-01	0.000000e+00	0.0	2.300000e-01	0.000000e+00	0.0	2.400000e-01	0.000000e+00	0.0	2.500000e-01	0.000000e+00	0.0	2.600000e-01	0.000000e+00	0.0	2.700000e-01	0.000000e+00	0.0	2.800000e-01	0.000000e+00	0.0	2.900000e-01	0.000000e+00	0.0	3.000000e-01	0.000000e+00	0.0	3.100000e-01	0.000000e+00	0.0	3.200000e-01	0.000000e+00	0.0	3.300000e-01	0.000000e+00	0.0	3.400000e-01	0.000000e+00	0.0	3.500000e-01	0.000000e+00	0.0	3.600000e-01	0.000000e+00	0.0	3.700000e-01	0.000000e+00	0.0	3.800000e-01	0.000000e+00	0.0	3.900000e-01	0.000000e+00	0.0	4.000000e-01	0.000000e+00	0.0	4.100000e-01	0.000000e+00	0.0	4.200000e-01	0.000000e+00	0.0	4.300000e-01	0.000000e+00	0.0	4.400000e-01	0.000000e+00	0.0	4.500000e-01	0.000000e+00	0.0	4.600000e-01	0.000000e+00	0.0	4.700000e-01	0.000000e+00	0.0	4.800000e-01	0.000000e+00	0.0	4.900000e-01	0.000000e+00	0.0	5.000000e-01	0.000000e+00	0.0	5.100000e-01	0.000000e+00	0.0	5.200000e-01	0.000000e+00	0.0	5.300000e-01	0.000000e+00	0.0	5.400000e-01	0.000000e+00	0.0	5.500000e-01	0.000000e+00	0.0	5.600000e-01	0.000000e+00	0.0	5.700000e-01	0.000000e+00	0.0	5.800000e-01	0.000000e+00	0.0	5.900000e-01	0.000000e+00	0.0	6.000000e-01	0.000000e+00	0.0	6.100000e-01	0.000000e+00	0.0	6.200000e-01	0.000000e+00	0.0	6.300000e-01	0.000000e+00	0.0	6.400000e-01	0.000000e+00	0.0	6.500000e-01	0.000000e+00	0.0	6.600000e-01	0.000000e+00	0.0	6.700000e-01	0.000000e+00	0.0	6.800000e-01	0.000000e+00	0.0	6.900000e-01	0.000000e+00	0.0	7.000000e-01	0.000000e+00	0.0	7.100000e-01	0.000000e+00	0.0	7.200000e-01	0.000000e+00	0.0	7.300000e-01	0.000000e+00	0.0	7.400000e-01	0.000000e+00	0.0	7.500000e-01	0.000000e+00	0.0	7.600000e-01	0.000000e+00	0.0	7.700000e-01	0.000000e+00	0.0	7.800000e-01	0.000000e+00	0.0	7.900000e-01	0.000000e+00	0.0	8.000000e-01	0.000000e+00	0.0	8.100000e-01	0.000000e+00	0.0	8.200000e-01	0.000000e+00	0.0	8.300000e-01	0.000000e+00	0.0	8.400000e-01	0.000000e+00	0.0	8.500000e-01	0.000000e+00	0.0	8.600000e-01	0.000000e+00	0.0	8.700000e-01	0.000000e+00	0.0	8.800000e-01	0.000000e+00	0.0	8.900000e-01	0.000000e+00	0.0	9.000000e-01	0.000000e+00	0.0	9.100000e-01	0.000000e+00	0.0	9.200000e-01	0.000000e+00	0.0	9.300000e-01	0.000000e+00	0.0	9.400000e-01	0.000000e+00	0.0	9.500000e-01	0.000000e+00	0.0	9.600000e-01	0.000000e+00	0.0	9.700000e-01	0.000000e+00	0.0	9.800000e-01	0.000000e+00	0.0	9.900000e-01	0.000000e+00	0.0	1.000000e+00	0.000000e+00	0.0	0.000000e+00	1.000000e-02	0.0	1.000000e-02	1.000000e-02	0.0	2.000000e-02	1.000000e-02	0.0	3.000000e-02	1.000000e-02	0.0	4.000000e-02	1.000000e-02	0.0	5.000000e-02	1.000000e-02	0.0	6.000000e-02	1.000000e-02	0.0	7.000000e-02	1.000000e-02	0.0	8.000000e-02	1.000000e-02	0.0	9.000000e-02	1.000000e-02	0.0	1.000000e-01	1.000000e-02	0.0	1.100000e-01	1.000000e-02	0.0	1.200000e-01	1.000000e-02	0.0	1.300000e-01	1.000000e-02	0.0	1.400000e-01	1.000000e-02	0.0	1.500000e-01	1.000000e-02	0.0	1.600000e-01	1.000000e-02	0.0	1.700000e-01	1.000000e-02	0.0	1.800000e-01	1.000000e-02	0.0	1.900000e-01	1.000000e-02	0.0	2.000000e-01	1.000000e-02	0.0	2.100000e-01	1.000000e-02	0.0	2.200000e-01	1.000000e-02	0.0	2.300000e-01	1.000000e-02	0.0	2.400000e-01	1.000000e-02	0.0	2.500000e-01	1.000000e-02	0.0	2.600000e-01	1.000000e-02	0.0	2.700000e-01	1.000000e-02	0.0	2.800000e-01	1.000000e-02	0.0	2.900000e-01	1.000000e-02	0.0	3.000000e-01	1.000000e-02	0.0	3.100000e-01	1.000000e-02	0.0	3.200000e-01	1.000000e-02	0.0	3.300000e-01	1.000000e-02	0.0	3.400000e-01	1.000000e-02	0.0	3.500000e-01	1.000000e-02	0.0	3.600000e-01	1.000000e-02	0.0	3.700000e-01	1.000000e-02	0.0	3.800000e-01	1.000000e-02	0.0	3.900000e-01	1.000000e-02	0.0	4.000000e-01	1.000000e-02	0.0	4.100000e-01	1.000000e-02	0.0	4.200000e-01	1.000000e-02	0.0	4.300000e-01	1.000000e-02	0.0	4.400000e-01	1.000000e-02	0.0	4.500000e-01	1.000000e-02	0.0	4.600000e-01	1.000000e-02	0.0	4.700000e-01	1.000000e-02	0.0	4.800000e-01	1.000000e-02	0.0	4.900000e-01	1.000000e-02	0.0	5.000000e-01	1.000000e-02	0.0	5.100000e-01	1.000000e-02	0.0	5.200000e-01	1.000000e-02	0.0	5.300000e-01	1.000000e-02	0.0	5.400000e-01	1.000000e-02	0.0	5.500000e-01	1.000000e-02	0.0	5.600000e-01	1.000000e-02	0.0	5.700000e-01	1.000000e-02	0.0	5.800000e-01	1.000000e-02	0.0	5.900000e-01	1.000000e-02	0.0	6.000000e-01	1.000000e-02	0.0	6.100000e-01	1.000000e-02	0.0	6.200000e-01	1.000000e-02	0.0	6.300000e-01	1.000000e-02	0.0	6.400000e-01	1.000000e-02	0.0	6.500000e-01	1.000000e-02	0.0	6.600000e-01	1.000000e-02	0.0	6.700000e-01	1.000000e-02	0.0	6.800000e-01	1.000000e-02	0.0	6.900000e-01	1.000000e-02	0.0	7.000000e-01	1.000000e-02	0.0	7.100000e-01	1.000000e-02	0.0	7.200000e-01	1.000000e-02	0.0	7.300000e-01	1.000000e-02	0.0	7.400000e-01	1.000000e-02	0.0	7.500000e-01	1.000000e-02	0.0	7.600000e-01	1.000000e-02	0.0	7.700000e-01	1.000000e-02	0.0	7.800000e-01	1.000000e-02	0.0	7.900000e-01	1.000000e-02	0.0	8.000000e-01	1.000000e-02	0.0	8.100000e-01	1.000000e-02	0.0	8.200000e-01	1.000000e-02	0.0	8.300000e-01	1.000000e-02	0.0	8.400000e-01	1.000000e-02	0.0	8.500000e-01	1.000000e-02	0.0	8.600000e-01	1.000000e-02	0.0	8.700000e-01	1.000000e-02	0.0	8.800000e-01	1.000000e-02	0.0	8.900000e-01	1.000000e-02	0.0	9.000000e-01	1.000000e-02	0.0	9.100000e-01	1.000000e-02	0.0	9.200000e-01	1.000000e-02	0.0	9.300000e-01	1.000000e-02	0.0	9.400000e-01	1.000000e-02	0.0	9.500000e-01	1.000000e-02	0.0	9.600000e-01	1.000000e-02	0.0	9.700000e-01	1.000000e-02	0.0	9.800000e-01	1.000000e-02	0.0	9.900000e-01	1.000000e-02	0.0	1.000000e+00	1.000000e-02	0.0	0.000000e+00	2.000000e-02	0.0	1.000000e-02	2.000000e-02	0.0	2.000000e-02	2.000000e-02	0.0	3.000000e-02	2.000000e-02	0.0	4.000000e-02	2.000000e-02	0.0	5.000000e-02	2.000000e-02	0.0	6.000000e-02	2.000000e-02	0.0	7.000000e-02	2.000000e-02	0.0	8.000000e-02	2.000000e-02	0.0	9.000000e-02	2.000000e-02	0.0	1.000000e-01	2.000000e-02	0.0	1.100000e-01	2.000000e-02	0.0	1.200000e-01	2.000000e-02	0.0	1.300000e-01	2.000000e-02	0.0	1.400000e-01	2.000000e-02	0.0	1.500000e-01	2.000000e-02	0.0	1.600000e-01	2.000000e-02	0.0	1.700000e-01	2.000000e-02	0.0	1.800000e-01	2.000000e-02	0.0	1.900000e-01	2.000000e-02	0.0	2.000000e-01	2.000000e-02	0.0	2.100000e-01	2.000000e-02	0.0	2.200000e-01	2.000000e-02	0.0	2.300000e-01	2.000000e-02	0.0	2.400000e-01	2.000000e-02	0.0	2.500000e-01	2.000000e-02	0.0	2.600000e-01	2.000000e-02	0.0	2.700000e-01	2.000000e-02	0.0	2.800000e-01	2.000000e-02	0.0	2.900000e-01	2.000000e-02	0.0	3.000000e-01	2.000000e-02	0.0	3.100000e-01	2.000000e-02	0.0	3.200000e-01	2.000000e-02	0.0	3.300000e-01	2.000000e-02	0.0	3.400000e-01	2.000000e-02	0.0	3.500000e-01	2.000000e-02	0.0	3.600000e-01	2.000000e-02	0.0	3.700000e-01	2.000000e-02	0.0	3.800000e-01	2.000000e-02	0.0	3.900000e-01	2.000000e-02	0.0	4.000000e-01	2.000000e-02	0.0	4.100000e-01	2.000000e-02	0.0	4.200000e-01	2.000000e-02	0.0	4.300000e-01	2.000000e-02	0.0	4.400000e-01	2.000000e-02	0.0	4.500000e-01	2.000000e-02	0.0	4.600000e-01	2.000000e-02	0.0	4.700000e-01	2.000000e-02	0.0	4.800000e-01	2.000000e-02	0.0	4.900000e-01	2.000000e-02	0.0	5.000000e-01	2.000000e-02	0.0	5.100000e-01	2.000000e-02	0.0	5.200000e-01	2.000000e-02	0.0	5.300000e-01	2.000000e-02	0.0	5.400000e-01	2.000000e-02	0.0	5.500000e-01	2.000000e-02	0.0	5.600000e-01	2.000000e-02	0.0	5.700000e-01	2.000000e-02	0.0	5.800000e-01	2.000000e-02	0.0	5.900000e-01	2.000000e-02	0.0	6.000000e-01	2.000000e-02	0.0	6.100000e-01	2.000000e-02	0.0	6.200000e-01	2.000000e-02	0.0	6.300000e-01	2.000000e-02	0.0	6.400000e-01	2.000000e-02	0.0	6.500000e-01	2.000000e-02	0.0	6.600000e-01	2.000000e-02	0.0	6.700000e-01	2.000000e-02	0.0	6.800000e-01	2.000000e-02	0.0	6.900000e-01	2.000000e-02	0.0	7.000000e-01	2.000000e-02	0.0	7.100000e-01	2.000000e-02	0.0	7.200000e-01	2.000000e-02	0.0	7.300000e-01	2.000000e-02	0.0	7.400000e-01	2.000000e-02	0.0	7.500000e-01	2.000000e-02	0.0	7.600000e-01	2.000000e-02	0.0	7.700000e-01	2.000000e-02	0.0	7.800000e-01	2.000000e-02	0.0	7.900000e-01	2.000000e-02	0.0	8.000000e-01	2.000000e-02	0.0	8.100000e-01	2.000000e-02	0.0	8.200000e-01	2.000000e-02	0.0	8.300000e-01	2.000000e-02	0.0	8.400000e-01	2.000000e-02	0.0	8.500000e-01	2.000000e-02	0.0	8.600000e-01	2.000000e-02	0.0	8.700000e-01	2.000000e-02	0.0	8.800000e-01	2.000000e-02	0.0	8.900000e-01	2.000000e-02	0.0	9.000000e-01	2.000000e-02	0.0	9.100000e-01	2.000000e-02	0.0	9.200000e-01	2.000000e-02	0.0	9.300000e-01	2.000000e-02	0.0	9.400000e-01	2.000000e-02	0.0	9.500000e-01	2.000000e-02	0.0	9.600000e-01	2.000000e-02	0.0	9.700000e-01	2.000000e-02	0.0	9.800000e-01	2.000000e-02	0.0	9.900000e-01	2.000000e-02	0.0	1.000000e+00	2.000000e-02	0.0	0.000000e+00	3.000000e-02	0.0	1.000000e-02	3.000000e-02	0.0	2.000000e-02	3.000000e-02	0.0	3.000000e-02	3.000000e-02	0.0	4.000000e-02	3.000000e-02	0.0	5.000000e-02	3.000000e-02	0.0	6.000000e-02	3.000000e-02	0.0	7.000000e-02	3.000000e-02	0.0	8.000000e-02	3.000000e-02	0.0	9.000000e-02	3.000000e-02	0.0	1.000000e-01	3.000000e-02	0.0	1.100000e-01	3.000000e-02	0.0	1.200000e-01	3.000000e-02	0.0	1.300000e-01	3.000000e-02	0.0	1.400000e-01	3.000000e-02	0.0	1.500000e-01	3.000000e-02	0.0	1.600000e-01	3.000000e-02	0.0	1.700000e-01	3.000000e-02	0.0	1.800000e-01	3.000000e-02	0.0	1.900000e-01	3.000000e-02	0.0	2.000000e-01	3.000000e-02	0.0	2.100000e-01	3.000000e-02	0.0	2.200000e-01	3.000000e-02	0.0	2.300000e-01	3.000000e-02	0.0	2.400000e-01	3.000000e-02	0.0	2.500000e-01	3.000000e-02	0.0	2.600000e-01	3.000000
[...]
POINT_DATA 10201

SCALARS Height double 1
LOOKUP_TABLE default
9.440189e-01	9.446698e-01	9.481585e-01	9.538435e-01	9.609098e-01	9.692734e-01	9.791093e-01	9.908749e-01	1.004352e+00	1.018250e+00	1.030617e+00	1.039962e+00	1.045655e+00	1.047522e+00	1.045076e+00	1.033974e+00	1.016552e+00	1.002368e+00	9.954117e-01	9.931298e-01	9.925618e-01	9.924521e-01	9.924302e-01	9.923929e-01	9.922993e-01	9.921451e-01	9.919425e-01	9.916881e-01	9.913710e-01	9.909822e-01	9.905032e-01	9.899117e-01	9.891485e-01	9.881059e-01	9.866116e-01	9.844470e-01	9.814858e-01	9.779943e-01	9.747223e-01	9.724800e-01	9.714674e-01	9.714078e-01	9.721343e-01	9.741239e-01	9.774773e-01	9.826289e-01	9.901742e-01	1.000481e+00	1.013414e+00	1.027459e+00	1.039978e+00	1.049178e+00	1.054699e+00	1.056605e+00	1.054232e+00	1.043483e+00	1.025537e+00	1.010361e+00	1.003065e+00	1.000764e+00	1.000190e+00	1.000053e+00	1.000016e+00	1.000005e+00	1.000002e+00	1.000000e+00	1.000000e+00	1.000000e+00	1.000000e+00	1.000000e+00	1.000000e+00	1.000000e+00	1.000000e+00	1.000000e+00	1.000000e+00	1.000000e+00	1.000000e+00	1.000000e+00	1.000000e+00	1.000000e+00	1.000000e+00	1.000000e+00	1.000000e+00	1.000000e+00	1.000000e+00	1.000000e+00	1.000000e+00	1.000000e+00	1.000000e+00	1.000000e+00	1.000000e+00	1.000000e+00	1.000000e+00	1.000000e+00	1.000000e+00	1.000000e+00	1.000000e+00	1.000000e+00	1.000000e+00	1.000000e+00	1.000000e+00	9.446698e-01	9.451928e-01	9.486905e-01	9.542390e-01	9.611589e-01	9.695541e-01	9.795324e-01	9.914068e-01	1.004820e+00	1.018653e+00	1.031056e+00	1.040392e+00	1.045348e+00	1.046311e+00	1.043684e+00	1.032899e+00	1.015801e+00	1.001518e+00	9.947597e-01	9.926910e-01	9.922474e-01	9.921721e-01	9.921541e-01	9.921139e-01	9.920173e-01	9.918564e-01	9.916369e-01	9.913579e-01	9.910058e-01	9.905624e-01	9.900080e-01	9.893112e-01	9.884091e-01	9.872006e-01	9.855534e-01	9.833523e-01	9.805956e-01	9.775385e-01	9.747318e-01	9.727381e-01	9.717886e-01	9.718009e-01	9.726060e-01	9.747958e-01	9.785012e-01	9.839485e-01	9.916932e-01	1.002036e+00	1.014729e+00	1.028546e+00	1.041238e+00	1.050444e+00	1.054882e+00	1.055690e+00	1.053187e+00	1.042570e+00	1.024999e+00	1.009826e+00	1.002640e+00	1.000567e+00	1.000128e+00	1.000036e+00	1.000012e+00	1.000004e+00	1.000001e+00	1.000000e+00	1.000000e+00	1.000000e+00	1.000000e+00	1.000000e+00	1.000000e+00	1.000000e+00	1.000000e+00	1.000000e+00	1.000000e+00	1.000000e+00	1.000000e+00	1.000000e+00	1.000000e+00	1.000000e+00	1.000000e+00	1.000000e+00	1.000000e+00	1.000000e+00	1.000000e+00	1.000000e+00	1.000000e+00	1.000000e+00	1.000000e+00	1.000000e+00	1.000000e+00	1.000000e+00	1.000000e+00	1.000000e+00	1.000000e+00	1.000000e+00	1.000000e+00	1.000000e+00	1.000000e+00	1.000000e+00	1.000000e+00	9.481585e-01	9.486905e-01	9.521247e-01	9.568776e-01	9.629720e-01	9.706535e-01	9.801059e-01	9.911738e-01	1.003336e+00	1.015916e+00	1.027829e+00	1.037086e+00	1.041433e+00	1.042127e+00	1.039559e+00	1.030215e+00	1.017213e+00	1.005116e+00	9.969566e-01	9.933303e-01	9.922784e-01	9.920292e-01	9.919483e-01	9.918811e-01	9.917745e-01	9.916021e-01	9.913561e-01	9.910300e-01	9.906113e-01	9.900773e-01	9.894040e-01	9.885548e-01	9.874762e-01	9.861164e-01	9.844775e-01	9.826655e-01	9.808554e-01	9.790866e-01	9.771602e-01	9.751328e-01	9.737182e-01	9.733397e-01	9.738743e-01	9.761592e-01	9.803104e-01	9.860684e-01	9.936537e-01	1.003345e+00	1.014699e+00	1.027032e+00	1.038819e+00	1.047361e+00	1.051346e+00	1.051804e+00	1.049048e+00	1.039775e+00	1.026550e+00	1.014009e+00	1.005136e+00	1.001245e+00	1.000242e+00	1.000054e+00	1.000016e+00	1.000005e+00	1.000002e+00	1.000000e+00	1.000000e+00	1.000000e+00	1.000000e+00	1.000000e+00	1.000000e+00	1.000000e+00	1.000000e+00	1.000000e+00	1.000000e+00	1.000000e+00	1.000000e+00	1.000000e+00	1.000000e+00	1.000000e+00	1.000000e+00	1.000000e+00	1.000000e+00	1.000000e+00	1.000000e+00	1.000000e+00	1.000000e+00	1.000000e+00	1.000000e+00	1.000000e+00	1.000000e+00	1.000000e+00	1.000000e+00	1.000000e+00	1.000000e+00	1.000000e+00	1.000000e+00	1.000000e+00	1.000000e+00	1.000000e+00	1.000000e+00	9.538435e-01	9.542390e-01	9.568776e-01	9.606596e-01	9.660891e-01	9.732823e-01	9.821238e-01	9.921544e-01	1.002905e+00	1.013895e+00	1.024858e+00	1.032908e+00	1.035697e+00	1.035727e+00	1.032388e+00	1.024909e+00	1.016477e+00	1.007958e+00	9.997273e-01	9.942246e-01	9.920724e-01	9.914854e-01	9.912961e-01	9.911758e-01	9.910296e-01	9.908162e-01	9.905076e-01	9.900868e-01	9.895413e-01	9.888504e-01	9.879950e-01	9.869579e-01	9.857323e-01	9.843662e-01	9.829986e-01	9.818083e-01	9.808470e-01	9.799393e-01	9.788037e-01	9.775670e-01	9.765462e-01	9.762921e-01	9.768782e-01	9.792651e-01	9.836946e-01	9.898403e-01	9.976283e-01	1.006769e+00	1.016688e+00	1.026743e+00	1.036340e+00	1.044083e+00	1.047081e+00	1.046766e+00	1.042913e+00	1.034738e+00	1.026094e+00	1.017601e+00	1.008927e+00	1.002820e+00	1.000575e+00	1.000105e+00	1.000024e+00	1.000007e+00	1.000002e+00	1.000001e+00	1.000000e+00	1.000000e+00	1.000000e+00	1.000000e+00	1.000000e+00	1.000000e+00	1.000000e+00	1.000000e+00	1.000000e+00	1.000000e+00	1.000000e+00	1.000000e+00	1.000000e+00	1.000000e+00	1.000000e+00	1.000000e+00	1.000000e+00	1.000000e+00	1.000000e+00	1.000000e+00	1.000000e+00	1.000000e+00	1.000000e+00	1.000000e+00	1.000000e+00	1.000000e+00	1.000000e+00	1.000000e+00	1.000000e+00	1.000000e+00	1.000000e+00	1.000000e+00	1.000000e+00	1.000000e+00	1.000000e+00	9.609098e-01	9.611589e-01	9.629720e-01	9.660891e-01	9.709489e-01	9.774537e-01	9.851732e-01	9.936405e-01	1.002516e+00	1.011519e+00	1.019979e+00	1.025832e+00	1.027752e+00	1.027469e+00	1.024217e+00	1.019294e+00	1.014944e+00	1.009935e+00	1.002797e+00	9.956796e-01	9.918827e-01	9.906486e-01	9.902573e-01	9.900441e-01	9.898271e-01	9.895380e-01	9.891407e-01	9.886017e-01	9.879211e-01	9.870990e-01	9.861560e-01	9.851343e-01	9.841072e-01	9.831580e-01	9.823714e-01	9.817538e-01	9.812283e-01	9.807478e-01	9.804805e-01	9.802505e-01	9.800968e-01	9.802889e-01	9.812580e-01	9.840761e-01	9.888356e-01	9.951170e-01	1.002528e+00	1.010451e+00	1.018199e+00	1.025507e+00	1.032946e+00	1.038989e+00	1.040880e+00	1.040147e+00	1.036130e+00	1.030161e+00	1.025362e+00	1.020550e+00	1.013347e+00	1.005551e+00	1.001361e+00	1.000242e+00	1.000046e+00	1.000012e+00	1.000004e+00	1.000001e+00	1.000000e+00	1.000000e+00	1.000000e+00	1.000000e+00	1.000000e+00	1.000000e+00	1.000000e+00	1.000000e+00	1.000000e+00	1.000000e+00	1.000000e+00	1.000000e+00	1.000000e+00	1.000000e+00	1.000000e+00	1.000000e+00	1.000000e+00	1.000000e+00	1.000000e+00	1.000000e+00	1.000000e+00	1.000000e+00	1.000000e+00	1.000000e+00	1.000000e+00	1.000000e+00	1.000000e+00	1.000000e+00	1.000000e+00	1.000000e+00	1.000000e+00	1.000000e+00	1.000000e+00	1.000000e+00	1.000000e+00	9.692734e-01	9.695541e-01	9.706535e-01	9.732823e-01	9.774537e-01	9.828736e-01	9.890496e-01	9.955285e-01	1.002057e+00	1.008422e+00	1.013477e+00	1.016771e+00	1.018236e+00	1.018200e+00	1.016525e+00	1.014473e+00	1.012860e+00	1.010377e+00	1.004893e+00	9.972537e-01	9.917106e-01	9.894760e-01	9.887533e-01	9.884076e-01	9.881053e-01	9.877433e-01	9.872848e-01	9.867120e-01	9.860406e-01	9.853149e-01	9.845978e-01	9.839480e-01	9.833909e-01	9.829096e-01	9.824657e-01	9.820409e-01	9.818341e-01	9.820152e-01	9.825252e-01	9.833525e-01	9.843007e-01	9.853961e-01	9.871964e-01	9.904071e-01	9.952854e-01	1.001379e+00	1.007692e+00	1.013448e+00	1.018626e+00	1.023713e+00	1.028738e+00	1.031980e+00	1.032897e+00	1.032205e+00	1.029736e+00	1.026854e+00	1.024927e+00	1.022541e+00	1.017234e+00	1.009061e+00	1.002815e+00	1.000561e+00	1.000098e+00	1.000021e+00	1.000006e+00	1.000002e+00	1.000001e+00	1.000000e+00	1.000000e+00	1.000000e+00	1.000000e+00	1.000000e+00	1.000000e+00	1.000000e+00	1.000000e+00	1.000000e+00	1.000000e+00	1.000000e+00	1.000000e+00	1.000000e+00	1.000000e+00	1.000000e+00	1.000000e+00	1.000000e+00	1.000000e+00	1.000000e+00	1.000000e+00	1.000000e+00	1.000000e+00	1.000000e+00	1.000000e+00	1.000000e+00	1.000000e+00	1.000000e+00	1.000000e+00	1.000000e+00	1.000000e+00	1.000000e+00	1.000000e+00	1.000000e+00	1.000000e+00	9.791093e-01	9.795324e-01	9.801059e-01	9.821238e-01	9.851732e-01	9.890496e-01	9.933078e-01	9.975123e-01	1.001266e+00	1.004377e+00	1.006178e+00	1.007146e+00	1.008188e+00	1.009793e+00	1.010614e+00	1.010896e+00	1.010997e+00	1.009966e+00	1.006027e+00	9.986919e-01	9.916830e-01	9.882392e-01	9.870515e-01	9.865736e-01	9.862488e-01	9.859300e-01	9.855797e-01	9.851927e-01	9.847880e-01	9.844005e-01	9.840547e-01	9.837413e-01	9.834272e-01	9.830869e-01	9.828190e-01	9.828372e-01	9.831956e-01	9.840437e-01	9.854126e-01	9.872146e-01	9.892972e-01	9.916219e-01	9.944099e-01	9.980351e-01	1.002677e+00	1.007642e+00	1.011885e+00	1.015109e+00	1.017927e+00	1.021172e+00	1.022988e+00	1.023363e+00	1.023454e+00	1.024190e+00	1.024939e+00	1.024874e+00	1.024685e+00	1.023648e+00	1.020091e+00	1.012660e+00	1.004978e+00	1.001192e+00	1.000213e+00	1.000039e+00	1.000009e+00	1.000003e+00	1.000001e+00	1.000000e+00	1.000000e+00	1.000000e+00	1.000000e+00	1.000000e+00	1.000000e+00	1.000000e+00	1.000000e+00	1.000000e+00	1.000000e+00	1.000000e+00	1.000000e+00	1.000000e+00	1.000000e+00	1.000000e+00	1.000000e+00	1.000000e+00	1.000000e+00	1.000000e+00	1.000000e+00	1.000000e+00	1.000000e+00	1.000000e+00	1.000000e+00	1.000000e+00	1.000000e+00	1.000000e+00	1.000000e+00	1.000000e+00	1.000000e+00	1.000000e+00	1.000000e+00	1.000000e+00	1.000000e+00	9.908749e-01	9.914068e-01	9.911738e-01	9.921544e-01	9.936405e-01	9.955285e-01	9.975123e-01	9.989209e-01	9.994839e-01	9.991982e-01	9.984850e-01	9.982557e-01	9.992035e-01	1.002799e+00	1.006911e+00	1.008905e+00	1.009548e+00	1.009415e+00	1.006927e+00	1.000634e+00	9.929241e-01	9.879385e-01	9.860766e-01	9.854788e-01	9.852197e-01	9.850457e-01	9.848876e-01	9.847210e-01	9.845341e-01	9.843296e-01	9.841089e-01	9.838867e-01	9.837036e-01	9.836832e-01	9.839162e-01	9.845372e-01	9.856633e-01	9.873015e-01	9.894852e-01	9.921945e-01	9.953589e-01	9.988550e-01	1.002515e+00	1.006239e+00	1.009754e+00	1.012518e+00	1.014223e+00	1.015399e+00	1.016629e+00	1.016560e+00	1.015357e+00	1.014131e+00	1.014152e+00	1.017231e+00	1.021904e+00	1.024069e+00	1.024418e+00	1.024145e+00	1.021861e+00	1.015772e+00	1.007634e+00	1.002248e+00	1.000445e+00	1.000078e+00	1.000016e+00	1.000004e+00	1.000001e+00	1.000000e+00	1.000000e+00	1.000000e+00	1.000000e+00	1.000000e+00	1.000000e+00	1.000000e+00	1.000000e+00	1.000000e+00	1.000000e+00	1.000000e+00	1.000000e+00	1.000000e+00	1.000000e+00	1.000000e+00	1.000000e+00	1.000000e+00	1.000000e+00	1.000000e+00	1.000000e+00	1.000000e+00	1.000000e+00	1.000000e+00	1.000000e+00	1.000000e+00	1.000000e+00	1.000000e+00	1.000000e+00	1.000000e+00	1.000000e+00	1.000000e+00	1.000000e+00	1.000000e+00	1.000000e+00	1.004352e+00	1.004820e+00	1.003336e+00	1.002905e+00	1.002516e+00	1.002057e+00	1.001266e+00	9.994839e-01	9.965887e-01	9.931669e-01	9.912289e-01	9.908151e-01	9.925605e-01	9.982119e-01	1.004515e+00	1.007827e+00	1.008816e+00	1.009045e+00	1.007490e+00	1.002484e+00	9.949865e-01	9.889507e-01	9.862804e-01	9.854270e-01	9.851391e-01	9.849880e-01	9.848635e-01	9.847441e-01	9.846296e-01	9.845223e-01	9.844656e-01	9.845267e-01	9.847581e-01	9.852764e-01	9.862151e-01	9.876012e-01	9.894800e-01	9.918957e-01	9.948802e-01	9.984428e-01	1.002517e+00	1.006805e+00	1.010674e+00	1.013494e+00	1.014894e+00	1.015166e+00	1.014956e+00	1.014741e+00	1.013396e+00	1.009876e+00	1.006454e+00	1.005261e+00	1.006541e+00	1.012630e+00	1.019832e+00	1.023430e+00	1.024231e+00	1.024246e+00	1.022806e+00	1.018157e+00	1.010411e+00	1.003748e+00	1.000857e+00	1.000153e+00	1.000028e+00	1.000007e+00	1.000002e+00	1.000001e+00	1.000000e+00	1.000000e+00	1.000000e+00	1.000000e+00	1.000000e+00	1.000000e+00	1.000000e+00	1.000000e+00	1.000000e+00	1.000000e+00	1.000000e+00	1.000000e+00	1.000000e+00	1.000000e+00	1.000000e+00	1.000000e+00	1.000000e+00	1.000000e+00	1.000000e+00	1.000000e+00	1.000000e+00	1.000000e+00	1.000000e+00	1.000000e+00	1.000000e+00	1.000000e+00	1.000000e+00	1.000000e+00	1.000000e+00	1.000000e+00	1.000000e+00	1.000000e+00	1.000000e+00	1.018250e+00	1.018653e+00	1.015916e+00	1.013895e+00	1.011519e+00	1.008422e+00	1.004377e+00	9.991982e-01	9.931669e-01	9.883010e-01	9.864018e-01	9.863074e-01	9.891296e-01	9.956493e-01	1.002915e+00	1.007116e+00	1.008506e+00	1.008898e+00	1.008028e+00	1.004282e+00	9.974299e-01	9.905893e-01	9.869287e-01	9.857274e-01	9.853680e-01	9.852201e-01	9.851480e-01	9.851396e-01	9.852227e-01	9.854188e-01	9.857429e-01	9.862958e-01	9.871458e-01	9.883678e-01	9.900135e-01	9.921152e-01	9.947144e-01	9.978486e-01	1.001555e+00	1.005811e+00	1.010350e+00	1.014502e+00	1.017218e+00	1.018111e+00	1.017723e+00	1.016230e+00	1.014724e+00	1.012179e+00	1.007137e+00	1.001425e+00	9.984664e-01	9.981854e-01	1.001728e+00	1.009809e+00	1.017966e+00	1.022647e+00	1.023939e+00	1.024084e+00	1.023236e+00	1.019842e+00	1.012978e+00	1.005582e+00	1.001498e+00	1.000286e+00	1.000050e+00	1.000010e+00	1.000003e+00	1.000001e+00	1.000000e+00	1.000000e+00	1.000000e+00	1.000000e+00	1.000000e+00	1.000000e+00	1.000000e+00	1.000000e+00	1.000000e+00	1.000000e+00	1.000000e+00	1.000000e+00	1.000000e+00	1.000000e+00	1.000000e+00	1.000000e+00	1.000000e+00	1.000000e+00	1.000000e+00	1.000000e+00	1.000000e+00	1.000000e+00	1.000000e+00	1.000000e+00	1.000000e+00	1.000000e+00	1.000000e+00	1.000000e+00	1.000000e+00	1.000000e+00	1.000000e+00	1.000000e+00	1.000000e+00	1.030617e+00	1.031056e+00	1.027829e+00	1.024858e+00	1.019979e+00	1.013477e+00	1.006178e+00	9.984850e-01	9.912289e-01	9.864018e-01	9.845328e-01	9.845108e-01	9.877285e-01	9.944571e-01	1.002231e+00	1.007357e+00	1.009070e+00	1.009493e+00	1.009025e+00	1.006204e+00	1.000248e+00	9.930304e-01	9.883130e-01	9.866700e-01	9.862904e-01	9.862417e-01	9.863312e-01	9.865798e-01	9.869851e-01	9.876327e-01	9.885152e-01	9.896657e-01	9.911524e-01	9.930231e-01	9.953127e-01	9.980594e-01	1.001299e+00	1.005040e+00	1.009226e+00	1.013596e+00	1.017485e+00	1.019987e+00	1.020812e+00	1.020420e+00	1.018698e+00	1.016092e+00	1.012219e+00	1.005995e+00	9.987551e-01	9.940743e-01	9.927857e-01	9.938223e-01	9.993244e-01	1.007746e+00	1.016008e+00	1.021539e+00	1.023533e+00	1.023806e+00	1.023413e+00	1.020956e+00	1.015148e+00	1.007560e+00	1.002372e+00	1.000500e+00	1.000088e+00	1.000017e+00	1.000004e+00	1.000001e+00	1.000000e+00	1.000000e+00	1.000000e+00	1.000000e+00	1.000000e+00	1.000000e+00	1.000000e+00	1.000000e+00	1.000000e+00	1.000000e+00	1.000000e+00	1.000000e+00	1.000000e+00	1.000000e+00	1.000000e+00	1.000000e+00	1.000000e+00	1.000000e+00	1.000000e+00	1.000000e+00	1.000000e+00	1.000000e+00	1.000000e+00	1.000000e+00	1.000000e+00	1.000000e+00	1.000000e+00	1.000000e+00	1.000000e+00	1.000000e+00	1.000000e+00	1.000000e+00	1.000000e+00	1.039962e+00	1.040392e+00	1.037086e+00	1.032908e+00	1.025832e+00	1.016771e+00	1.007146e+00	9.982557e-01	9.908151e-01	9.863074e-01	9.845108e-01	9.847667e-01	9.889054e-01	9.957560e-01	1.003194e+00	1.008764e+00	1.010837e+00	1.011207e+00	1.010947e+00	1.008830e+00	1.003778e+00	9.966427e-01	9.910365e-01	9.889075e-01	9.885669e-01	9.887063e-01	9.890427e-01	9.895633e-01	9.904181e-01	9.915753e-01	9.929855e-01	9.946825e-01	9.967248e-01	9.991511e-01	1.001993e+00	1.005264e+00	1.008925e+00	1.012845e+00	1.016665e+00	1.019792e+00	1.021679e+00	1.022218e+00	1.022023e+00	1.021082e+00	1.018437e+00	1.013353e+00	1.005596e+00	9.973411e-01	9.918009e-01	9.896529e-01	9.895179e-01	9.920369e-01	9.980030e-01	1.005865e+00	1.013948e+00	1.020214e+00	1.023022e+00	1.023531e+00	1.023394e+00	1.021669e+00	1.016857e+00	1.009494e+00	1.003435e+00	1.000809e+00	1.000147e+00	1.000026e+00	1.000006e+00	1.000001e+00	1.000000e+00	1.000000e+00	1.000000e+00	1.000000e+00	1.000000e+00	1.000000e+00	1.000000e+00	1.000000e+00	1.000000e+00	1.000000e+00	1.000000e+00	1.000000e+00	1.000000e+00	1.000000e+00	1.000000e+00	1.000000e+00	1.000000e+00	1.000000e+00	1.000000e+00	1.000000e+00	1.000000e+00	1.000000e+00	1.000000e+00	1.000000e+00	1.000000e+00	1.000000e+00	1.000000e+00	1.000000e+00	1.000000e+00	1.000000e+00	1.000000e+00	1.000000e+00	1.000000e+00	1.045655e+00	1.045348e+00	1.041433e+00	1.035697e+00	1.027752e+00	1.018236e+00	1.008188e+00	9.992035e-01	9.925605e-01	9.891296e-01	9.877285e-01	9.889054e-01	9.933091e-01	9.992123e-01	1.005691e+00	1.011502e+00	1.014186e+00	1.014543e+00	1.014364e+00	1.012726e+00	1.008507e+00	1.001794e+00	9.956048e-01	9.929247e-01	9.926240e-01	9.929451e-01	9.934562e-01	9.943218e-01	9.956006e-01	9.971868e-01	9.990366e-01	1.001185e+00	1.003669e+00	1.006499e+00	1.009644e+00	1.013002e+00	1.016332e+00	1.019256e+00	1.021360e+00	1.022476e+00	1.022779e+00	1.022694e+00	1.022212e+00	1.020260e+00	1.015055e+00	1.006038e+00	9.967067e-01	9.906771e-01	9.882115e-01	9.877088e-01	9.883259e-01	9.914188e-01	9.969249e-01	1.004050e+00	1.011927e+00	1.018780e+00	1.022426e+00	1.023268e+00	1.023281e+00	1.022089e+00	1.018139e+00	1.011250e+00	1.004607e+00	1.001212e+00	1.000233e+00	1.000041e+00	1.000008e+00	1.000002e+00	1.000001e+00	1.000000e+00	1.000000e+00	1.000000e+00	1.000000e+00	1.000000e+00	1.000000e+00	1.000000e+00	1.000000e+00	1.000000e+00	1.000000e+00	1.000000e+00	1.000000e+00	1.000000e+00	1.000000e+00	1.000000e+00	1.000000e+00	1.000000e+00	1.000000e+00	1.000000e+00	1.000000e+00	1.000000e+00	1.000000e+00	1.000000e+00	1.000000e+00	1.000000e+00	1.000000e+00	1.000000e+00	1.000000e+00	1.000000e+00	1.000000e+00	1.000000e+00	1.000000e+00	1.047522e+00	1.046311e+00	1.042127e+00	1.035727e+00	1.027469e+00	1.018200e+00	1.009793e+00	1.002799e+00	9.982119e-01	9.956493e-01	9.944571e-01	9.957560e-01	9.992123e-01	1.003979e+00	1.009822e+00	1.015799e+00	1.019204e+00	1.019705e+00	1.019498e+00	1.018229e+00	1.014684e+00	1.008546e+00	1.002097e+00	9.987945e-01	9.984331e-01	9.988229e-01	9.995147e-01	1.000693e+00	1.002292e+00	1.004189e+00	1.006340e+00	1.008734e+00	1.011337e+00	1.014067e+00	1.016751e+00	1.019150e+00	1.021000e+00	1.022183e+00	1.022735e+00	1.022961e+00	1.022894e+00	1.022414e+00	1.020616e+00	1.015637e+00	1.006823e+00	9.971165e-01	9.905441e-01	9.878531e-01	9.871285e-01	9.871232e-01	9.881617e-01	9.910424e-01	9.958601e-01	1.002376e+00	1.010093e+00	1.017373e+00	1.021773e+00	1.023014e+00	1.023136e+00	1.022324e+00	1.019083e+00	1.012747e+00	1.005796e+00	1.001691e+00	1.000347e+00	1.000061e+00	1.000011e+00	1.000003e+00	1.000001e+00	1.000000e+00	1.000000e+00	1.000000e+00	1.000000e+00	1.000000e+00	1.000000e+00	1.000000e+00	1.000000e+00	1.000000e+00	1.000000e+00	1.000000e+00	1.000000e+00	1.000000e+00	1.000000e+00	1.000000e+00	1.000000e+00	1.000000e+00	1.000000e+00	1.000000e+00	1.000000e+00	1.000000e+00	1.000000e+00	1.000000e+00	1.000000e+00	1.000000e+00	1.000000e+00	1.000000e+00	1.000000e+00	1.000000e+00	1.000000e+00	1.000000e+00	1.000000e+00	1.045076e+00	1.043684e+00	1.039559e+00	1.032388e+00	1.024217e+00	1.016525e+00	1.010614e+00	1.006911e+00	1.004515e+00	1.002915e+00	1.002231e+00	1.003194e+00	1.005691e+00	1.009822e+00	1.015382e+00	1.021408e+00	1.025509e+00	1.026335e+00	1.026114e+00	1.025099e+00	1.022145e+00	1.016607e+00	1.010115e+00	1.006161e+00	1.005568e+00	1.005969e+00	1.006793e+00	1.008141e+00	1.009853e+00	1.011775e+00	1.013805e+00	1.015851e+00	1.017803e+00	1.019519e+00	1.020897e+00	1.021847e+00	1.022407e+00	1.022754e+00	1.022928e+00	1.022724e+00	1.021960e+00	1.019611e+00	1.014374e+00	1.006342e+00	9.980359e-01	9.918930e-01	9.885440e-01	9.872984e-01	9.870697e-01	9.871990e-01	9.881869e-01	9.906473e-01	9.948562e-01	1.000947e+00	1.008522e+00	1.016066e+00	1.021098e+00	1.022766e+00	1.022980e+00	1.022438e+00	1.019758e+00	1.013972e+00	1.006919e+00	1.002212e+00	1.000484e+00	1.000087e+00	1.000016e+00	1.000003e+00	1.000001e+00	1.000000e+00	1.000000e+00	1.000000e+00	1.000000e+00	1.000000e+00	1.000000e+00	1.000000e+00	1.000000e+00	1.000000e+00	1.000000e+00	1.000000e+00	1.000000e+00	1.000000e+00	1.000000e+00	1.000000e+00	1.000000e+00	1.000000e+00	1.000000e+00	1.000000e+00	1.000000e+00	1.000000e+00	1.000000e+00	1.000000e+00	1.000000e+00	1.000000e+00	1.000000e+00	1.000000e+00	1.000000e+00	1.000000e+00	1.000000e+00	1.000000e+00	1.000000e+00	1.033974e+00	1.032899e+00	1.030215e+00	1.024909e+00	1.019294e+00	1.014473e+00	1.010896e+00	1.008905e+00	1.007827e+00	1.007116e+00	1.007357e+00	1.008764e+00	1.011502e+00	1.015799e+00	1.021408e+00	1.027509e+00	1.032161e+00	1.033493e+00	1.033276