# vtk DataFile Version 3.0
vtk output
ASCII
DATASET STRUCTURED_GRID
DIMENSIONS 101 101 1
POINTS 10201 double
0.000000e+00	0.000000e+00	0.0	1.000000e-02	0.000000e+00	0.0	2.000000e-02	0.000000e+00	0.0	3.000000e-02	0.000000e+00	0.0	4.000000e-02	0.000000e+00	0.0	5.000000e-02	0.000000e+00	0.0	6.000000e-02	0.000000e+00	0.0	7.000000e-02	0.000000e+00	0.0	8.000000e-02	0.000000e+00	0.0	9.000000e-02	0.000000e+00	0.0	1.000000e-01	0.000000e+00	0.0	1.100000e-01	0.000000e+00	0.0	1.200000e-01	0.000000e+00	0.0	1.300000e-01	0.000000e+00	0.0	1.400000e-01	0.000000e+00	0.0	1.500000e-01	0.000000e+00	0.0	1.600000e-01	0.000000e+00	0.0	1.700000e-01	0.000000e+00	0.0	1.800000e-01	0.000000e+00	0.0	1.900000e-01	0.000000e+00	0.0	2.000000e-01	0.000000e+00	0.0	2.100000e-01	0.000000e+00	0.0	2.200000e-01	0.000000e+00	0.0	2.300000e-01	0.000000e+00	0.0	2.400000e-01	0.000000e+00	0.0	2.500000e-01	0.000000e+00	0.0	2.600000e-01	0.000000e+00	0.0	2.700000e-01	0.000000e+00	0.0	2.800000e-01	0.000000e+00	0.0	2.900000e-01	0.000000e+00	0.0	3.000000e-01	0.000000e+00	0.0	3.100000e-01	0.000000e+00	0.0	3.200000e-01	0.000000e+00	0.0	3.300000e-01	0.000000e+00	0.0	3.400000e-01	0.000000e+00	0.0	3.500000e-01	0.000000e+00	0.0	3.600000e-01	0.000000e+00	0.0	3.700000e-01	0.000000e+00	0.0	3.800000e-01	0.000000e+00	0.0	3.900000e-01	0.000000e+00	0.0	4.000000e-01	0.000000e+00	0.0	4.100000e-01	0.000000e+00	0.0	4.200000e-01	0.000000e+00	0.0	4.300000e-01	0.000000e+00	0.0	4.400000e-01	0.000000e+00	0.0	4.500000e-01	0.000000e+00	0.0	4.600000e-01	0.000000e+00	0.0	4.700000e-01	0.000000e+00	0.0	4.800000e-01	0.000000e+00	0.0	4.900000e-01	0.000000e+00	0.0	5.000000e-01	0.000000e+00	0.0	5.100000e-01	0.000000e+00	0.0	5.200000e-01	0.000000e+00	0.0	5.300000e-01	0.000000e+00	0.0	5.400000e-01	0.000000e+00	0.0	5.500000e-01	0.000000e+00	0.0	5.600000e-01	0.000000e+00	0.0	5.700000e-01	0.000000e+00	0.0	5.800000e-01	0.000000e+00	0.0	5.900000e-01	0.000000e+00	0.0	6.000000e-01	0.000000e+00	0.0	6.100000e-01	0.000000e+00	0.0	6.200000e-01	0.000000e+00	0.0	6.300000e-01	0.000000e+00	0.0	6.400000e-01	0.000000e+00	0.0	6.500000e-01	0.000000e+00	0.0	6.600000e-01	0.000000e+00	0.0	6.700000e-01	0.000000e+00	0.0	6.800000e-01	0.000000e+00	0.0	6.900000e-01	0.000000e+00	0.0	7.000000e-01	0.000000e+00	0.0	7.100000e-01	0.000000e+00	0.0	7.200000e-01	0.000000e+00	0.0	7.300000e-01	0.000000e+00	0.0	7.400000e-01	0.000000e+00	0.0	7.500000e-01	0.000000e+00	0.0	7.600000e-01	0.000000e+00	0.0	7.700000e-01	0.000000e+00	0.0	7.800000e-01	0.000000e+00	0.0	7.900000e-01	0.000000e+00	0.0	8.000000e-01	0.000000e+00	0.0	8.100000e-01	0.000000e+00	0.0	8.200000e-01	0.000000e+00	0.0	8.300000e-01	0.000000e+00	0.0	8.400000e-01	0.000000e+00	0.0	8.500000e-01	0.000000e+00	0.0	8.600000e-01	0.000000e+00	0.0	8.700000e-01	0.000000e+00	0.0	8.800000e-01	0.000000e+00	0.0	8.900000e-01	0.000000e+00	0.0	9.000000e-01	0.000000e+00	0.0	9.100000e-01	0.000000e+00	0.0	9.200000e-01	0.000000e+00	0.0	9.300000e-01	0.000000e+00	0.0	9.400000e-01	0.000000e+00	0.0	9.500000e-01	0.000000e+00	0.0	9.600000e-01	0.000000e+00	0.0	9.700000e-01	0.000000e+00	0.0	9.800000e-01	0.000000e+00	0.0	9.900000e-01	0.000000e+00	0.0	1.000000e+00	0.000000e+00	0.0	0.000000e+00	1.000000e-02	0.0	1.000000e-02	1.000000e-02	0.0	2.000000e-02	1.000000e-02	0.0	3.000000e-02	1.000000e-02	0.0	4.000000e-02	1.000000e-02	0.0	5.000000e-02	1.000000e-02	0.0	6.000000e-02	1.000000e-02	0.0	7.000000e-02	1.000000e-02	0.0	8.000000e-02	1.000000e-02	0.0	9.000000e-02	1.000000e-02	0.0	1.000000e-01	1.000000e-02	0.0	1.100000e-01	1.000000e-02	0.0	1.200000e-01	1.000000e-02	0.0	1.300000e-01	1.000000e-02	0.0	1.400000e-01	1.000000e-02	0.0	1.500000e-01	1.000000e-02	0.0	1.600000e-01	1.000000e-02	0.0	1.700000e-01	1.000000e-02	0.0	1.800000e-01	1.000000e-02	0.0	1.900000e-01	1.000000e-02	0.0	2.000000e-01	1.000000e-02	0.0	2.100000e-01	1.000000e-02	0.0	2.200000e-01	1.000000e-02	0.0	2.300000e-01	1.000000e-02	0.0	2.400000e-01	1.000000e-02	0.0	2.500000e-01	1.000000e-02	0.0	2.600000e-01	1.000000e-02	0.0	2.700000e-01	1.000000e-02	0.0	2.800000e-01	1.000000e-02	0.0	2.900000e-01	1.000000e-02	0.0	3.000000e-01	1.000000e-02	0.0	3.100000e-01	1.000000e-02	0.0	3.200000e-01	1.000000e-02	0.0	3.300000e-01	1.000000e-02	0.0	3.400000e-01	1.000000e-02	0.0	3.500000e-01	1.000000e-02	0.0	3.600000e-01	1.000000e-02	0.0	3.700000e-01	1.000000e-02	0.0	3.800000e-01	1.000000e-02	0.0	3.900000e-01	1.000000e-02	0.0	4.000000e-01	1.000000e-02	0.0	4.100000e-01	1.000000e-02	0.0	4.200000e-01	1.000000e-02	0.0	4.300000e-01	1.000000e-02	0.0	4.400000e-01	1.000000e-02	0.0	4.500000e-01	1.000000e-02	0.0	4.600000e-01	1.000000e-02	0.0	4.700000e-01	1.000000e-02	0.0	4.800000e-01	1.000000e-02	0.0	4.900000e-01	1.000000e-02	0.0	5.000000e-01	1.000000e-02	0.0	5.100000e-01	1.000000e-02	0.0	5.200000e-01	1.000000e-02	0.0	5.300000e-01	1.000000e-02	0.0	5.400000e-01	1.000000e-02	0.0	5.500000e-01	1.000000e-02	0.0	5.600000e-01	1.000000e-02	0.0	5.700000e-01	1.000000e-02	0.0	5.800000e-01	1.000000e-02	0.0	5.900000e-01	1.000000e-02	0.0	6.000000e-01	1.000000e-02	0.0	6.100000e-01	1.000000e-02	0.0	6.200000e-01	1.000000e-02	0.0	6.300000e-01	1.000000e-02	0.0	6.400000e-01	1.000000e-02	0.0	6.500000e-01	1.000000e-02	0.0	6.600000e-01	1.000000e-02	0.0	6.700000e-01	1.000000e-02	0.0	6.800000e-01	1.000000e-02	0.0	6.900000e-01	1.000000e-02	0.0	7.000000e-01	1.000000e-02	0.0	7.100000e-01	1.000000e-02	0.0	7.200000e-01	1.000000e-02	0.0	7.300000e-01	1.000000e-02	0.0	7.400000e-01	1.000000e-02	0.0	7.500000e-01	1.000000e-02	0.0	7.600000e-01	1.000000e-02	0.0	7.700000e-01	1.000000e-02	0.0	7.800000e-01	1.000000e-02	0.0	7.900000e-01	1.000000e-02	0.0	8.000000e-01	1.000000e-02	0.0	8.100000e-01	1.000000e-02	0.0	8.200000e-01	1.000000e-02	0.0	8.300000e-01	1.000000e-02	0.0	8.400000e-01	1.000000e-02	0.0	8.500000e-01	1.000000e-02	0.0	8.600000e-01	1.000000e-02	0.0	8.700000e-01	1.000000e-02	0.0	8.800000e-01	1.000000e-02	0.0	8.900000e-01	1.000000e-02	0.0	9.000000e-01	1.000000e-02	0.0	9.100000e-01	1.000000e-02	0.0	9.200000e-01	1.000000e-02	0.0	9.300000e-01	1.000000e-02	0.0	9.400000e-01	1.000000e-02	0.0	9.500000e-01	1.000000e-02	0.0	9.600000e-01	1.000000e-02	0.0	9.700000e-01	1.000000e-02	0.0	9.800000e-01	1.000000e-02	0.0	9.900000e-01	1.000000e-02	0.0	1.000000e+00	1.000000e-02	0.0	0.000000e+00	2.000000e-02	0.0	1.000000e-02	2.000000e-02	0.0	2.000000e-02	2.000000e-02	0.0	3.000000e-02	2.000000e-02	0.0	4.000000e-02	2.000000e-02	0.0	5.000000e-02	2.000000e-02	0.0	6.000000e-02	2.000000e-02	0.0	7.000000e-02	2.000000e-02	0.0	8.000000e-02	2.000000e-02	0.0	9.000000e-02	2.000000e-02	0.0	1.000000e-01	2.000000e-02	0.0	1.100000e-01	2.000000e-02	0.0	1.200000e-01	2.000000e-02	0.0	1.300000e-01	2.000000e-02	0.0	1.400000e-01	2.000000e-02	0.0	1.500000e-01	2.000000e-02	0.0	1.600000e-01	2.000000e-02	0.0	1.700000e-01	2.000000e-02	0.0	1.800000e-01	2.000000e-02	0.0	1.900000e-01	2.000000e-02	0.0	2.000000e-01	2.000000e-02	0.0	2.100000e-01	2.000000e-02	0.0	2.200000e-01	2.000000e-02	0.0	2.300000e-01	2.000000e-02	0.0	2.400000e-01	2.000000e-02	0.0	2.500000e-01	2.000000e-02	0.0	2.600000e-01	2.000000e-02	0.0	2.700000e-01	2.000000e-02	0.0	2.800000e-01	2.000000e-02	0.0	2.900000e-01	2.000000e-02	0.0	3.000000e-01	2.000000e-02	0.0	3.100000e-01	2.000000e-02	0.0	3.200000e-01	2.000000e-02	0.0	3.300000e-01	2.000000e-02	0.0	3.400000e-01	2.000000e-02	0.0	3.500000e-01	2.000000e-02	0.0	3.600000e-01	2.000000e-02	0.0	3.700000e-01	2.000000e-02	0.0	3.800000e-01	2.000000e-02	0.0	3.900000e-01	2.000000e-02	0.0	4.000000e-01	2.000000e-02	0.0	4.100000e-01	2.000000e-02	0.0	4.200000e-01	2.000000e-02	0.0	4.300000e-01	2.000000e-02	0.0	4.400000e-01	2.000000e-02	0.0	4.500000e-01	2.000000e-02	0.0	4.600000e-01	2.000000e-02	0.0	4.700000e-01	2.000000e-02	0.0	4.800000e-01	2.000000e-02	0.0	4.900000e-01	2.000000e-02	0.0	5.000000e-01	2.000000e-02	0.0	5.100000e-01	2.000000e-02	0.0	5.200000e-01	2.000000e-02	0.0	5.300000e-01	2.000000e-02	0.0	5.400000e-01	2.000000e-02	0.0	5.500000e-01	2.000000e-02	0.0	5.600000e-01	2.000000e-02	0.0	5.700000e-01	2.000000e-02	0.0	5.800000e-01	2.000000e-02	0.0	5.900000e-01	2.000000e-02	0.0	6.000000e-01	2.000000e-02	0.0	6.100000e-01	2.000000e-02	0.0	6.200000e-01	2.000000e-02	0.0	6.300000e-01	2.000000e-02	0.0	6.400000e-01	2.000000e-02	0.0	6.500000e-01	2.000000e-02	0.0	6.600000e-01	2.000000e-02	0.0	6.700000e-01	2.000000e-02	0.0	6.800000e-01	2.000000e-02	0.0	6.900000e-01	2.000000e-02	0.0	7.000000e-01	2.000000e-02	0.0	7.100000e-01	2.000000e-02	0.0	7.200000e-01	2.000000e-02	0.0	7.300000e-01	2.000000e-02	0.0	7.400000e-01	2.000000e-02	0.0	7.500000e-01	2.000000e-02	0.0	7.600000e-01	2.000000e-02	0.0	7.700000e-01	2.000000e-02	0.0	7.800000e-01	2.000000e-02	0.0	7.900000e-01	2.000000e-02	0.0	8.000000e-01	2.000000e-02	0.0	8.100000e-01	2.000000e-02	0.0	8.200000e-01	2.000000e-02	0.0	8.300000e-01	2.000000e-02	0.0	8.400000e-01	2.000000e-02	0.0	8.500000e-01	2.000000e-02	0.0	8.600000e-01	2.000000e-02	0.0	8.700000e-01	2.000000e-02	0.0	8.800000e-01	2.000000e-02	0.0	8.900000e-01	2.000000e-02	0.0	9.000000e-01	2.000000e-02	0.0	9.100000e-01	2.000000e-02	0.0	9.200000e-01	2.000000e-02	0.0	9.300000e-01	2.000000e-02	0.0	9.400000e-01	2.000000e-02	0.0	9.500000e-01	2.000000e-02	0.0	9.600000e-01	2.000000e-02	0.0	9.700000e-01	2.000000e-02	0.0	9.800000e-01	2.000000e-02	0.0	9.900000e-01	2.000000e-02	0.0	1.000000e+00	2.000000e-02	0.0	0.000000e+00	3.000000e-02	0.0	1.000000e-02	3.000000e-02	0.0	2.000000e-02	3.000000e-02	0.0	3.000000e-02	3.000000e-02	0.0	4.000000e-02	3.000000e-02	0.0	5.000000e-02	3.000000e-02	0.0	6.000000e-02	3.000000e-02	0.0	7.000000e-02	3.000000e-02	0.0	8.000000e-02	3.000000e-02	0.0	9.000000e-02	3.000000e-02	0.0	1.000000e-01	3.000000e-02	0.0	1.100000e-01	3.000000e-02	0.0	1.200000e-01	3.000000e-02	0.0	1.300000e-01	3.000000e-02	0.0	1.400000e-01	3.000000e-02	0.0	1.500000e-01	3.000000e-02	0.0	1.600000e-01	3.000000e-02	0.0	1.700000e-01	3.000000e-02	0.0	1.800000e-01	3.000000e-02	0.0	1.900000e-01	3.000000e-02	0.0	2.000000e-01	3.000000e-02	0.0	2.100000e-01	3.000000e-02	0.0	2.200000e-01	3.000000e-02	0.0	2.300000e-01	3.000000e-02	0.0	2.400000e-01	3.000000e-02	0.0	2.500000e-01	3.000000e-02	0.0	2.600000e-01	3.000000
[...]
POINT_DATA 10201

SCALARS Height double 1
LOOKUP_TABLE default
9.985403e-01	9.985496e-01	9.985577e-01	9.985560e-01	9.985613e-01	9.985687e-01	9.985771e-01	9.985773e-01	9.985748e-01	9.985660e-01	9.985505e-01	9.985315e-01	9.985112e-01	9.984923e-01	9.984759e-01	9.984631e-01	9.984534e-01	9.984452e-01	9.984365e-01	9.984259e-01	9.984108e-01	9.983880e-01	9.983607e-01	9.983312e-01	9.983012e-01	9.982699e-01	9.982373e-01	9.982025e-01	9.981652e-01	9.981245e-01	9.980797e-01	9.980308e-01	9.979769e-01	9.979178e-01	9.978532e-01	9.977835e-01	9.977082e-01	9.976264e-01	9.975374e-01	9.974397e-01	9.973316e-01	9.972111e-01	9.970772e-01	9.969283e-01	9.967623e-01	9.965751e-01	9.963583e-01	9.960953e-01	9.957575e-01	9.952981e-01	9.946490e-01	9.937280e-01	9.924770e-01	9.909363e-01	9.893108e-01	9.879260e-01	9.870222e-01	9.865965e-01	9.865216e-01	9.868237e-01	9.880754e-01	9.906577e-01	9.945392e-01	9.994430e-01	1.004973e+00	1.010693e+00	1.016048e+00	1.020338e+00	1.023042e+00	1.024238e+00	1.024349e+00	1.023043e+00	1.018743e+00	1.011753e+00	1.004970e+00	1.000763e+00	9.989131e-01	9.982633e-01	9.980592e-01	9.979918e-01	9.979587e-01	9.979304e-01	9.979141e-01	9.979955e-01	9.984734e-01	1.000102e+00	1.004051e+00	1.010516e+00	1.017054e+00	1.020705e+00	1.021237e+00	1.020192e+00	1.017567e+00	1.013031e+00	1.006876e+00	9.999690e-01	9.932018e-01	9.871760e-01	9.822162e-01	9.789817e-01	9.768900e-01	9.985536e-01	9.985533e-01	9.985628e-01	9.985604e-01	9.985641e-01	9.985708e-01	9.985768e-01	9.985786e-01	9.985773e-01	9.985677e-01	9.985505e-01	9.985297e-01	9.985083e-01	9.984881e-01	9.984706e-01	9.984563e-01	9.984446e-01	9.984343e-01	9.984230e-01	9.984095e-01	9.983932e-01	9.983708e-01	9.983468e-01	9.983213e-01	9.982922e-01	9.982644e-01	9.982332e-01	9.981997e-01	9.981628e-01	9.981222e-01	9.980777e-01	9.980288e-01	9.979750e-01	9.979158e-01	9.978511e-01	9.977810e-01	9.977052e-01	9.976229e-01	9.975334e-01	9.974346e-01	9.973256e-01	9.972044e-01	9.970695e-01	9.969195e-01	9.967519e-01	9.965627e-01	9.963435e-01	9.960781e-01	9.957376e-01	9.952752e-01	9.946232e-01	9.937008e-01	9.924488e-01	9.909031e-01	9.892582e-01	9.878275e-01	9.868895e-01	9.865340e-01	9.865016e-01	9.868205e-01	9.880394e-01	9.905961e-01	9.944955e-01	9.994293e-01	1.004993e+00	1.010739e+00	1.016135e+00	1.020562e+00	1.023388e+00	1.024349e+00	1.024330e+00	1.023108e+00	1.019070e+00	1.012066e+00	1.004895e+00	1.000469e+00	9.986990e-01	9.981682e-01	9.980231e-01	9.979746e-01	9.979462e-01	9.979131e-01	9.978761e-01	9.978978e-01	9.982562e-01	9.998041e-01	1.003979e+00	1.010834e+00	1.017355e+00	1.020746e+00	1.021216e+00	1.020309e+00	1.017906e+00	1.013208e+00	1.006913e+00	9.999359e-01	9.930890e-01	9.870555e-01	9.821466e-01	9.789475e-01	9.768293e-01	9.985624e-01	9.985624e-01	9.985745e-01	9.985703e-01	9.985726e-01	9.985772e-01	9.985811e-01	9.985815e-01	9.985785e-01	9.985680e-01	9.985512e-01	9.985309e-01	9.985097e-01	9.984896e-01	9.984712e-01	9.984562e-01	9.984448e-01	9.984355e-01	9.984236e-01	9.984109e-01	9.983953e-01	9.983732e-01	9.983475e-01	9.983187e-01	9.982898e-01	9.982589e-01	9.982289e-01	9.981953e-01	9.981586e-01	9.981186e-01	9.980748e-01	9.980264e-01	9.979731e-01	9.979149e-01	9.978514e-01	9.977825e-01	9.977077e-01	9.976262e-01	9.975372e-01	9.974395e-01	9.973315e-01	9.972113e-01	9.970771e-01	9.969269e-01	9.967583e-01	9.965670e-01	9.963447e-01	9.960752e-01	9.957285e-01	9.952572e-01	9.945947e-01	9.936669e-01	9.924271e-01	9.909126e-01	9.892930e-01	9.878594e-01	9.869563e-01	9.866733e-01	9.866690e-01	9.870157e-01	9.882384e-01	9.907533e-01	9.946129e-01	9.994946e-01	1.004984e+00	1.010638e+00	1.016014e+00	1.020531e+00	1.023281e+00	1.024024e+00	1.023975e+00	1.022809e+00	1.019027e+00	1.012301e+00	1.005090e+00	1.000477e+00	9.986508e-01	9.981393e-01	9.980090e-01	9.979636e-01	9.979366e-01	9.979037e-01	9.978616e-01	9.978654e-01	9.981984e-01	9.997940e-01	1.004167e+00	1.011065e+00	1.017288e+00	1.020408e+00	1.020828e+00	1.019964e+00	1.017761e+00	1.013157e+00	1.006822e+00	9.998941e-01	9.931252e-01	9.872030e-01	9.823880e-01	9.792593e-01	9.771682e-01	9.985615e-01	9.985622e-01	9.985731e-01	9.985687e-01	9.985696e-01	9.985723e-01	9.985747e-01	9.985743e-01	9.985701e-01	9.985601e-01	9.985439e-01	9.985253e-01	9.985062e-01	9.984883e-01	9.984725e-01	9.984578e-01	9.984465e-01	9.984355e-01	9.984252e-01	9.984122e-01	9.983961e-01	9.983748e-01	9.983475e-01	9.983186e-01	9.982889e-01	9.982589e-01	9.982276e-01	9.981931e-01	9.981556e-01	9.981146e-01	9.980697e-01	9.980207e-01	9.979670e-01	9.979084e-01	9.978447e-01	9.977758e-01	9.977008e-01	9.976189e-01	9.975296e-01	9.974315e-01	9.973233e-01	9.972025e-01	9.970674e-01	9.969156e-01	9.967443e-01	9.965491e-01	9.963212e-01	9.960435e-01	9.956858e-01	9.951987e-01	9.945157e-01	9.935686e-01	9.923242e-01	9.908195e-01	9.892038e-01	9.877930e-01	9.869993e-01	9.868059e-01	9.868198e-01	9.872101e-01	9.884839e-01	9.910270e-01	9.948625e-01	9.997079e-01	1.005114e+00	1.010705e+00	1.016121e+00	1.020638e+00	1.023123e+00	1.023714e+00	1.023634e+00	1.022480e+00	1.018854e+00	1.012335e+00	1.005199e+00	1.000539e+00	9.986643e-01	9.981349e-01	9.979979e-01	9.979486e-01	9.979200e-01	9.978866e-01	9.978441e-01	9.978455e-01	9.981809e-01	9.998173e-01	1.004264e+00	1.011102e+00	1.017086e+00	1.020026e+00	1.020403e+00	1.019555e+00	1.017557e+00	1.013173e+00	1.006832e+00	9.999077e-01	9.932655e-01	9.875474e-01	9.828061e-01	9.797295e-01	9.776471e-01	9.985653e-01	9.985659e-01	9.985759e-01	9.985705e-01	9.985685e-01	9.985682e-01	9.985690e-01	9.985672e-01	9.985623e-01	9.985515e-01	9.985355e-01	9.985179e-01	9.985010e-01	9.984849e-01	9.984693e-01	9.984553e-01	9.984436e-01	9.984317e-01	9.984228e-01	9.984090e-01	9.983922e-01	9.983722e-01	9.983428e-01	9.983146e-01	9.982846e-01	9.982546e-01	9.982227e-01	9.981878e-01	9.981496e-01	9.981077e-01	9.980619e-01	9.980117e-01	9.979574e-01	9.978986e-01	9.978349e-01	9.977660e-01	9.976912e-01	9.976096e-01	9.975203e-01	9.974222e-01	9.973138e-01	9.971925e-01	9.970561e-01	9.969023e-01	9.967278e-01	9.965281e-01	9.962931e-01	9.960045e-01	9.956309e-01	9.951213e-01	9.944112e-01	9.934402e-01	9.921831e-01	9.906747e-01	9.890663e-01	9.877515e-01	9.871196e-01	9.869908e-01	9.870254e-01	9.874737e-01	9.888164e-01	9.914004e-01	9.952248e-01	9.999930e-01	1.005305e+00	1.010866e+00	1.016310e+00	1.020666e+00	1.022838e+00	1.023304e+00	1.023210e+00	1.022060e+00	1.018546e+00	1.012252e+00	1.005315e+00	1.000682e+00	9.987389e-01	9.981528e-01	9.979920e-01	9.979339e-01	9.979012e-01	9.978665e-01	9.978271e-01	9.978411e-01	9.982107e-01	9.999047e-01	1.004342e+00	1.011006e+00	1.016759e+00	1.019548e+00	1.019872e+00	1.019022e+00	1.017196e+00	1.013083e+00	1.006890e+00	1.000007e+00	9.935585e-01	9.880314e-01	9.833776e-01	9.803636e-01	9.782978e-01	9.985677e-01	9.985677e-01	9.985764e-01	9.985701e-01	9.985657e-01	9.985634e-01	9.985630e-01	9.985607e-01	9.985543e-01	9.985427e-01	9.985268e-01	9.985106e-01	9.984952e-01	9.984801e-01	9.984654e-01	9.984516e-01	9.984395e-01	9.984279e-01	9.984187e-01	9.984044e-01	9.983878e-01	9.983674e-01	9.983383e-01	9.983103e-01	9.982798e-01	9.982504e-01	9.982178e-01	9.981823e-01	9.981436e-01	9.981012e-01	9.980546e-01	9.980038e-01	9.979486e-01	9.978888e-01	9.978244e-01	9.977550e-01	9.976799e-01	9.975983e-01	9.975089e-01	9.974105e-01	9.973010e-01	9.971782e-01	9.970396e-01	9.968829e-01	9.967046e-01	9.964991e-01	9.962556e-01	9.959536e-01	9.955571e-01	9.950194e-01	9.942782e-01	9.932795e-01	9.919958e-01	9.904653e-01	9.888940e-01	9.877480e-01	9.872847e-01	9.872003e-01	9.872726e-01	9.877998e-01	9.892377e-01	9.918787e-01	9.956804e-01	1.000351e+00	1.005586e+00	1.011144e+00	1.016537e+00	1.020613e+00	1.022485e+00	1.022832e+00	1.022715e+00	1.021548e+00	1.018102e+00	1.012058e+00	1.005426e+00	1.000879e+00	9.988535e-01	9.981886e-01	9.979896e-01	9.979182e-01	9.978793e-01	9.978423e-01	9.978085e-01	9.978469e-01	9.982804e-01	1.000055e+00	1.004407e+00	1.010776e+00	1.016280e+00	1.018967e+00	1.019264e+00	1.018400e+00	1.016669e+00	1.012887e+00	1.006969e+00	1.000244e+00	9.939869e-01	9.886297e-01	9.840859e-01	9.811582e-01	9.791228e-01	9.985680e-01	9.985674e-01	9.985733e-01	9.985666e-01	9.985612e-01	9.985583e-01	9.985572e-01	9.985540e-01	9.985462e-01	9.985337e-01	9.985187e-01	9.985042e-01	9.984899e-01	9.984753e-01	9.984607e-01	9.984468e-01	9.984338e-01	9.984224e-01	9.984122e-01	9.983978e-01	9.983815e-01	9.983599e-01	9.983314e-01	9.983035e-01	9.982727e-01	9.982429e-01	9.982097e-01	9.981738e-01	9.981348e-01	9.980922e-01	9.980453e-01	9.979937e-01	9.979376e-01	9.978769e-01	9.978117e-01	9.977416e-01	9.976661e-01	9.975843e-01	9.974947e-01	9.973954e-01	9.972844e-01	9.971596e-01	9.970184e-01	9.968584e-01	9.966759e-01	9.964641e-01	9.962100e-01	9.958900e-01	9.954679e-01	9.948916e-01	9.941081e-01	9.930710e-01	9.917513e-01	9.902008e-01	9.887274e-01	9.877960e-01	9.874822e-01	9.874421e-01	9.875685e-01	9.881985e-01	9.897529e-01	9.924555e-01	9.962208e-01	1.000791e+00	1.005962e+00	1.011508e+00	1.016752e+00	1.020472e+00	1.022040e+00	1.022299e+00	1.022148e+00	1.020936e+00	1.017535e+00	1.011782e+00	1.005531e+00	1.001128e+00	9.990142e-01	9.982444e-01	9.979920e-01	9.979007e-01	9.978541e-01	9.978151e-01	9.977904e-01	9.978646e-01	9.983874e-01	1.000249e+00	1.004463e+00	1.010437e+00	1.015653e+00	1.018270e+00	1.018565e+00	1.017684e+00	1.016010e+00	1.012542e+00	1.007024e+00	1.000627e+00	9.945746e-01	9.893514e-01	9.849276e-01	9.821125e-01	9.801250e-01	9.985619e-01	9.985630e-01	9.985660e-01	9.985597e-01	9.985542e-01	9.985514e-01	9.985497e-01	9.985457e-01	9.985373e-01	9.985256e-01	9.985124e-01	9.984992e-01	9.984853e-01	9.984707e-01	9.984561e-01	9.984422e-01	9.984291e-01	9.984171e-01	9.984055e-01	9.983916e-01	9.983751e-01	9.983507e-01	9.983240e-01	9.982957e-01	9.982652e-01	9.982338e-01	9.981996e-01	9.981630e-01	9.981238e-01	9.980810e-01	9.980337e-01	9.979816e-01	9.979248e-01	9.978631e-01	9.977972e-01	9.977262e-01	9.976501e-01	9.975675e-01	9.974769e-01	9.973760e-01	9.972627e-01	9.971349e-01	9.969905e-01	9.968267e-01	9.966393e-01	9.964198e-01	9.961524e-01	9.958108e-01	9.953558e-01	9.947390e-01	9.939087e-01	9.928157e-01	9.914400e-01	9.899026e-01	9.885922e-01	9.879023e-01	9.877209e-01	9.877165e-01	9.879192e-01	9.886804e-01	9.903673e-01	9.931254e-01	9.968425e-01	1.001327e+00	1.006446e+00	1.011923e+00	1.016927e+00	1.020244e+00	1.021521e+00	1.021703e+00	1.021506e+00	1.020225e+00	1.016869e+00	1.011441e+00	1.005636e+00	1.001415e+00	9.992153e-01	9.983203e-01	9.980000e-01	9.978817e-01	9.978241e-01	9.977849e-01	9.977732e-01	9.978952e-01	9.985251e-01	1.000476e+00	1.004508e+00	1.010024e+00	1.014901e+00	1.017447e+00	1.017755e+00	1.016854e+00	1.015225e+00	1.012049e+00	1.007064e+00	1.001123e+00	9.953162e-01	9.902017e-01	9.859067e-01	9.832341e-01	9.813189e-01	9.985551e-01	9.985583e-01	9.985581e-01	9.985528e-01	9.985475e-01	9.985435e-01	9.985408e-01	9.985361e-01	9.985274e-01	9.985165e-01	9.985047e-01	9.984922e-01	9.984784e-01	9.984638e-01	9.984492e-01	9.984352e-01	9.984228e-01	9.984107e-01	9.983984e-01	9.983852e-01	9.983674e-01	9.983438e-01	9.983169e-01	9.982867e-01	9.982573e-01	9.982238e-01	9.981891e-01	9.981519e-01	9.981118e-01	9.980680e-01	9.980199e-01	9.979672e-01	9.979102e-01	9.978476e-01	9.977808e-01	9.977092e-01	9.976322e-01	9.975486e-01	9.974564e-01	9.973533e-01	9.972371e-01	9.971058e-01	9.969574e-01	9.967891e-01	9.965954e-01	9.963658e-01	9.960811e-01	9.957125e-01	9.952190e-01	9.945535e-01	9.936648e-01	9.925025e-01	9.910735e-01	9.895942e-01	9.885098e-01	9.880604e-01	9.879884e-01	9.880263e-01	9.883301e-01	9.892519e-01	9.910801e-01	9.938851e-01	9.975491e-01	1.001957e+00	1.007014e+00	1.012358e+00	1.017043e+00	1.019940e+00	1.020932e+00	1.021040e+00	1.020787e+00	1.019424e+00	1.016125e+00	1.011060e+00	1.005736e+00	1.001728e+00	9.994512e-01	9.984167e-01	9.980134e-01	9.978615e-01	9.977909e-01	9.977507e-01	9.977571e-01	9.979393e-01	9.986925e-01	1.000725e+00	1.004541e+00	1.009559e+00	1.014050e+00	1.016499e+00	1.016823e+00	1.015898e+00	1.014308e+00	1.011472e+00	1.007102e+00	1.001702e+00	9.961805e-01	9.911774e-01	9.870280e-01	9.845321e-01	9.827192e-01	9.985484e-01	9.985514e-01	9.985492e-01	9.985458e-01	9.985402e-01	9.985357e-01	9.985317e-01	9.985267e-01	9.985182e-01	9.985081e-01	9.984969e-01	9.984839e-01	9.984699e-01	9.984548e-01	9.984403e-01	9.984268e-01	9.984141e-01	9.984025e-01	9.983890e-01	9.983745e-01	9.983574e-01	9.983338e-01	9.983064e-01	9.982790e-01	9.982472e-01	9.982148e-01	9.981792e-01	9.981410e-01	9.980996e-01	9.980543e-01	9.980049e-01	9.979514e-01	9.978938e-01	9.978305e-01	9.977630e-01	9.976903e-01	9.976120e-01	9.975266e-01	9.974321e-01	9.973263e-01	9.972069e-01	9.970718e-01	9.969190e-01	9.967452e-01	9.965438e-01	9.963017e-01	9.959964e-01	9.955952e-01	9.950568e-01	9.943332e-01	9.933705e-01	9.921264e-01	9.906616e-01	9.893044e-01	9.885098e-01	9.882816e-01	9.882719e-01	9.883719e-01	9.888170e-01	9.899168e-01	9.918865e-01	9.947297e-01	9.983432e-01	1.002674e+00	1.007636e+00	1.012782e+00	1.017083e+00	1.019530e+00	1.020266e+00	1.020321e+00	1.019992e+00	1.018543e+00	1.015327e+00	1.010659e+00	1.005835e+00	1.002059e+00	9.997151e-01	9.985313e-01	9.980310e-01	9.978389e-01	9.977544e-01	9.977138e-01	9.977418e-01	9.979952e-01	9.988829e-01	1.000986e+00	1.004562e+00	1.009059e+00	1.013119e+00	1.015435e+00	1.015767e+00	1.014813e+00	1.013259e+00	1.010819e+00	1.007143e+00	1.002337e+00	9.971284e-01	9.922705e-01	9.883037e-01	9.860160e-01	9.843338e-01	9.985399e-01	9.985425e-01	9.985389e-01	9.985368e-01	9.985313e-01	9.985264e-01	9.985220e-01	9.985173e-01	9.985091e-01	9.984993e-01	9.984881e-01	9.984752e-01	9.984607e-01	9.984456e-01	9.984309e-01	9.984169e-01	9.984040e-01	9.983915e-01	9.983778e-01	9.983623e-01	9.983441e-01	9.983208e-01	9.982953e-01	9.982665e-01	9.982360e-01	9.982035e-01	9.981677e-01	9.981287e-01	9.980860e-01	9.980395e-01	9.979886e-01	9.979343e-01	9.978762e-01	9.978124e-01	9.977440e-01	9.976699e-01	9.975894e-01	9.975013e-01	9.974038e-01	9.972945e-01	9.971712e-01	9.970317e-01	9.968740e-01	9.966936e-01	9.964827e-01	9.962245e-01	9.958943e-01	9.954553e-01	9.948640e-01	9.940698e-01	9.930163e-01	9.916828e-01	9.902217e-01	9.890815e-01	9.886097e-01	9.885414e-01	9.885707e-01	9.887733e-01	9.893915e-01	9.906807e-01	9.927817e-01	9.956575e-01	9.992235e-01	1.003465e+00	1.008287e+00	1.013163e+00	1.017017e+00	1.019020e+00	1.019531e+00	1.019537e+00	1.019127e+00	1.017598e+00	1.014500e+00	1.010260e+00	1.005937e+00	1.002400e+00	9.999997e-01	9.986610e-01	9.980527e-01	9.978143e-01	9.977142e-01	9.976728e-01	9.977260e-01	9.980607e-01	9.990894e-01	1.001249e+00	1.004573e+00	1.008538e+00	1.012127e+00	1.014265e+00	1.014583e+00	1.013594e+00	1.012094e+00	1.010103e+00	1.007180e+00	1.002991e+00	9.981232e-01	9.934747e-01	9.897570e-01	9.876915e-01	9.861520e-01	9.985298e-01	9.985316e-01	9.985272e-01	9.985257e-01	9.985207e-01	9.985158e-01	9.985115e-01	9.985070e-01	9.984987e-01	9.984885e-01	9.984776e-01	9.984650e-01	9.984511e-01	9.984365e-01	9.984224e-01	9.984081e-01	9.983944e-01	9.983810e-01	9.983670e-01	9.983502e-01	9.983306e-01	9.983073e-01	9.982809e-01	9.982527e-01	9.982224e-01	9.981893e-01	9.981532e-01	9.981132e-01	9.980693e-01	9.980213e-01	9.979700e-01	9.979152e-01	9.978567e-01	9.977928e-01	9.977236e-01	9.976478e-01	9.975647e-01	9.974731e-01	9.973716e-01	9.972580e-01	9.971301e-01	9.969854e-01	9.968215e-01	9.966333e-01	9.964098e-01	9.961324e-01	9.957715e-01	9.952878e-01	9.946332e-01	9.937520e-01	9.925900e-01	9.911691e-01	9.897989e-01	9.889964e-01	9.887960e-01	9.888039e-01	9.889004e-01	9.892509e-01	9.900685e-01	9.915472e-01	9.937628e-01	9.966649e-01	1.000185e+00	1.004314e+00	1.008938e+00	1.013467e+00	1.016830e+00	1.018401e+00	1.018726e+00	1.018690e+00	1.018192e+00	1.016605e+00	1.013671e+00	1.009882e+00	1.006047e+00	1.002746e+00	1.000297e+00	9.988022e-01	9.980778e-01	9.977876e-01	9.976695e-01	9.976282e-01	9.977095e-01	9.981320e-01	9.993035e-01	1.001506e+00	1.004573e+00	1.008005e+00	1.011091e+00	1.012996e+00	1.013263e+00	1.012247e+00	1.010841e+00	1.009372e+00	1.007189e+00	1.003606e+00	9.991265e-01	9.948054e-01	9.914085e-01	9.895578e-01	9.881549e-01	9.985181e-01	9.985177e-01	9.985139e-01	9.985130e-01	9.985086e-01	9.985039e-01	9.984995e-01	9.984949e-01	9.984867e-01	9.984767e-01	9.984659e-01	9.984541e-01	9.984418e-01	9.984279e-01	9.984137e-01	9.983988e-01	9.983839e-01	9.983691e-01	9.983533e-01	9.983361e-01	9.983158e-01	9.982928e-01	9.982672e-01	9.982387e-01	9.982077e-01	9.981739e-01	9.981364e-01	9.980949e-01	9.980498e-01	9.980004e-01	9.979484e-01	9.978933e-01	9.978340e-01	9.977699e-01	9.977000e-01	9.976225e-01	9.975367e-01	9.974414e-01	9.973354e-01	9.972170e-01	9.970838e-01	9.969334e-01	9.967623e-01	9.965645e-01	9.963251e-01	9.960236e-01	9.956258e-01	9.950877e-01	9.943558e-01	9.933649e-01	9.920711e-01	9.906031e-01	9.894696e-01	9.890591e-01	9.890242e-01	9.890716e-01	9.892857e-01	9.898214e-01	9.908569e-01	9.925168e-01	9.948272e-01	9.977457e-01	1.001219e+00	1.005207e+00	1.009552e+00	1.013649e+00	1.016497e+00	1.017673e+00	1.017863e+00	1.017780e+00	1.017194e+00	1.015581e+00	1.012866e+00	1.009542e+00	1.006169e+00	1.003089e+00	1.000598e+00	9.989485e-01	9.981044e-01	9.977575e-01	9.976201e-01	9.975808e-01	9.976920e-01	9.982047e-01	9.995151e-01	1.001748e+00	1.004562e+00	1.007477e+00	1.010032e+00	1.011633e+00	1.011803e+00	1.010779e+00	1.009587e+00	1.008679e+00	1.007117e+00	1.004109e+00	1.000135e+00	9.962851e-01	9.932535e-01	9.916087e-01	9.903345e-01	9.985039e-01	9.985016e-01	9.985000e-01	9.985001e-01	9.984957e-01	9.984910e-01	9.984860e-01	9.984812e-01	9.984733e-01	9.984636e-01	9.984535e-01	9.984430e-01	9.984316e-01	9.984191e-01	9.984044e-01	9.983890e-01	9.983727e-01	9.983565e-01	9.983393e-01	9.983206e-01	9.982994e-01	9.982769e-01	9.982516e-01	9.982232e-01	9.981916e-01	9.981567e-01	9.981175e-01	9.980744e-01	9.980277e-01	9.979786e-01	9.979252e-01	9.978687e-01	9.978086e-01	9.977434e-01	9.976721e-01	9.975927e-01	9.975039e-01	9.974047e-01	9.972939e-01	9.971700e-01	9.970314e-01	9.968754e-01	9.966968e-01	9.964862e-01	9.962296e-01	9.958977e-01	9.954537e-01	9.948483e-01	9.940181e-01	9.928852e-01	9.914476e-01	9.900691e-01	9.893457e-01	9.892107e-01	9.892385e-01	9.893742e-01	9.897489e-01	9.905016e-01	9.917610e-01	9.935869e-01	9.959712e-01	9.988904e-01	1.002307e+00	1.006121e+00	1.010099e+00	1.013668e+00	1.016002e+00	1.016849e+00	1.016940e+00	1.016808e+00	1.016145e+00	1.014554e+00	1.012109e+00	1.009252e+00	1.006305e+00	1.003423e+00	1.000891e+00	9.990912e-01	9.981278e-01	9.977229e-01	9.975651e-01	9.975285e-01	9.976704e-01	9.982729e-01	9.997151e-01	1.001968e+00	1.004536e+00	1.006961e+00	1.008969e+00	1.010187e+00	1.010195e+00	1.009247e+00	1.008446e+00	1.008012e+00	1.006891e+00	1.004466e+00	1.001169e+00	9.979029e-01	9.952721e-01	9.938375e-01	9.926929e-01	9.984895e-01	9.984852e-01	9.984846e-01	9.984865e-01	9.984818e-01	9.984773e-01	9.984715e-01	9.984664e-01	9.984595e-01	9.984505e-01	9.984408e-01	9.984316e-01	9.984213e-01	9.984088e-01	9.983945e-01	9.983773e-01	9.983599e-01	9.983417e-01	9.983230e-01	9.983025e-01	9.982800e-01	9.982581e-01	9.982335e-01	9.982055e-01	9.981733e-01	9.981372e-01	9.980964e-01	9.980528e-01	9.980059e-01	9.979550e-01	9.979009e-01	9.978431e-01	9.977811e-01	9.977140e-01	9.976405e-01	9.975583e-01	9.974659e-01	9.973620e-01	9.972458e-01	9.971160e-01	9.969718e-01	9.968095e-01	9.966233e-01	9.964001e-01	9.961189e-01	9.957493e-01	9.952485e-01	9.945583e-01	9.935952e-01	9.922796e-01	9.907656e-01	9.896941e-01	9.893939e-01	9.893843e-01	9.894670e-01	9.897387e-01	9.903141e-01	9.913038e-01	9.927808e-01	9.947530e-01	9.971924e-01	1.000090e+00	1.003420e+00	1.007016e+00	1.010535e+00	1.013501e+00	1.015351e+00	1.015938e+00	1.015958e+00	1.015780e+00	1.015064e+00	1.013553e+00	1.011429e+00	1.009027e+00	1.006458e+00	1.003745e+00	1.001165e+00	9.992214e-01	9.981432e-01	9.976830e-01	9.975046e-01	9.974687e-01	9.976401e-01	9.983273e-01	9.998908e-01	1.002159e+00	1.004491e+00	1.006452e+00	1.007902e+00	1.008655e+00	1.008469e+00	1.007788e+00	1.007458e+00	1.007278e+00	1.006474e+00	1.004704e+00	1.002208e+00	9.996247e-01	9.974419e-01	9.962338e-01	9.952226e-01	9.984753e-01	9.984691e-01	9.984695e-01	9.984711e-01	9.984676e-01	9.984626e-01	9.984566e-01	9.984512e-01	9.984448e-01	9.984371e-01	9.984278e-01	9.984193e-01	9.984092e-01	9.983971e-01	9.983816e-01	9.983635e-01	9.983451e-01	9.983252e-01	9.983050