# vtk DataFile Version 3.0
vtk output
ASCII
DATASET STRUCTURED_GRID
DIMENSIONS 101 101 1
POINTS 10201 double
0.000000e+00	0.000000e+00	0.0	1.000000e-02	0.000000e+00	0.0	2.000000e-02	0.000000e+00	0.0	3.000000e-02	0.000000e+00	0.0	4.000000e-02	0.000000e+00	0.0	5.000000e-02	0.000000e+00	0.0	6.000000e-02	0.000000e+00	0.0	7.000000e-02	0.000000e+00	0.0	8.000000e-02	0.000000e+00	0.0	9.000000e-02	0.000000e+00	0.0	1.000000e-01	0.000000e+00	0.0	1.100000e-01	0.000000e+00	0.0	1.200000e-01	0.000000e+00	0.0	1.300000e-01	0.000000e+00	0.0	1.400000e-01	0.000000e+00	0.0	1.500000e-01	0.000000e+00	0.0	1.600000e-01	0.000000e+00	0.0	1.700000e-01	0.000000e+00	0.0	1.800000e-01	0.000000e+00	0.0	1.900000e-01	0.000000e+00	0.0	2.000000e-01	0.000000e+00	0.0	2.100000e-01	0.000000e+00	0.0	2.200000e-01	0.000000e+00	0.0	2.300000e-01	0.000000e+00	0.0	2.400000e-01	0.000000e+00	0.0	2.500000e-01	0.000000e+00	0.0	2.600000e-01	0.000000e+00	0.0	2.700000e-01	0.000000e+00	0.0	2.800000e-01	0.000000e+00	0.0	2.900000e-01	0.000000e+00	0.0	3.000000e-01	0.000000e+00	0.0	3.100000e-01	0.000000e+00	0.0	3.200000e-01	0.000000e+00	0.0	3.300000e-01	0.000000e+00	0.0	3.400000e-01	0.000000e+00	0.0	3.500000e-01	0.000000e+00	0.0	3.600000e-01	0.000000e+00	0.0	3.700000e-01	0.000000e+00	0.0	3.800000e-01	0.000000e+00	0.0	3.900000e-01	0.000000e+00	0.0	4.000000e-01	0.000000e+00	0.0	4.100000e-01	0.000000e+00	0.0	4.200000e-01	0.000000e+00	0.0	4.300000e-01	0.000000e+00	0.0	4.400000e-01	0.000000e+00	0.0	4.500000e-01	0.000000e+00	0.0	4.600000e-01	0.000000e+00	0.0	4.700000e-01	0.000000e+00	0.0	4.800000e-01	0.000000e+00	0.0	4.900000e-01	0.000000e+00	0.0	5.000000e-01	0.000000e+00	0.0	5.100000e-01	0.000000e+00	0.0	5.200000e-01	0.000000e+00	0.0	5.300000e-01	0.000000e+00	0.0	5.400000e-01	0.000000e+00	0.0	5.500000e-01	0.000000e+00	0.0	5.600000e-01	0.000000e+00	0.0	5.700000e-01	0.000000e+00	0.0	5.800000e-01	0.000000e+00	0.0	5.900000e-01	0.000000e+00	0.0	6.000000e-01	0.000000e+00	0.0	6.100000e-01	0.000000e+00	0.0	6.200000e-01	0.000000e+00	0.0	6.300000e-01	0.000000e+00	0.0	6.400000e-01	0.000000e+00	0.0	6.500000e-01	0.000000e+00	0.0	6.600000e-01	0.000000e+00	0.0	6.700000e-01	0.000000e+00	0.0	6.800000e-01	0.000000e+00	0.0	6.900000e-01	0.000000e+00	0.0	7.000000e-01	0.000000e+00	0.0	7.100000e-01	0.000000e+00	0.0	7.200000e-01	0.000000e+00	0.0	7.300000e-01	0.000000e+00	0.0	7.400000e-01	0.000000e+00	0.0	7.500000e-01	0.000000e+00	0.0	7.600000e-01	0.000000e+00	0.0	7.700000e-01	0.000000e+00	0.0	7.800000e-01	0.000000e+00	0.0	7.900000e-01	0.000000e+00	0.0	8.000000e-01	0.000000e+00	0.0	8.100000e-01	0.000000e+00	0.0	8.200000e-01	0.000000e+00	0.0	8.300000e-01	0.000000e+00	0.0	8.400000e-01	0.000000e+00	0.0	8.500000e-01	0.000000e+00	0.0	8.600000e-01	0.000000e+00	0.0	8.700000e-01	0.000000e+00	0.0	8.800000e-01	0.000000e+00	0.0	8.900000e-01	0.000000e+00	0.0	9.000000e-01	0.000000e+00	0.0	9.100000e-01	0.000000e+00	0.0	9.200000e-01	0.000000e+00	0.0	9.300000e-01	0.000000e+00	0.0	9.400000e-01	0.000000e+00	0.0	9.500000e-01	0.000000e+00	0.0	9.600000e-01	0.000000e+00	0.0	9.700000e-01	0.000000e+00	0.0	9.800000e-01	0.000000e+00	0.0	9.900000e-01	0.000000e+00	0.0	1.000000e+00	0.000000e+00	0.0	0.000000e+00	1.000000e-02	0.0	1.000000e-02	1.000000e-02	0.0	2.000000e-02	1.000000e-02	0.0	3.000000e-02	1.000000e-02	0.0	4.000000e-02	1.000000e-02	0.0	5.000000e-02	1.000000e-02	0.0	6.000000e-02	1.000000e-02	0.0	7.000000e-02	1.000000e-02	0.0	8.000000e-02	1.000000e-02	0.0	9.000000e-02	1.000000e-02	0.0	1.000000e-01	1.000000e-02	0.0	1.100000e-01	1.000000e-02	0.0	1.200000e-01	1.000000e-02	0.0	1.300000e-01	1.000000e-02	0.0	1.400000e-01	1.000000e-02	0.0	1.500000e-01	1.000000e-02	0.0	1.600000e-01	1.000000e-02	0.0	1.700000e-01	1.000000e-02	0.0	1.800000e-01	1.000000e-02	0.0	1.900000e-01	1.000000e-02	0.0	2.000000e-01	1.000000e-02	0.0	2.100000e-01	1.000000e-02	0.0	2.200000e-01	1.000000e-02	0.0	2.300000e-01	1.000000e-02	0.0	2.400000e-01	1.000000e-02	0.0	2.500000e-01	1.000000e-02	0.0	2.600000e-01	1.000000e-02	0.0	2.700000e-01	1.000000e-02	0.0	2.800000e-01	1.000000e-02	0.0	2.900000e-01	1.000000e-02	0.0	3.000000e-01	1.000000e-02	0.0	3.100000e-01	1.000000e-02	0.0	3.200000e-01	1.000000e-02	0.0	3.300000e-01	1.000000e-02	0.0	3.400000e-01	1.000000e-02	0.0	3.500000e-01	1.000000e-02	0.0	3.600000e-01	1.000000e-02	0.0	3.700000e-01	1.000000e-02	0.0	3.800000e-01	1.000000e-02	0.0	3.900000e-01	1.000000e-02	0.0	4.000000e-01	1.000000e-02	0.0	4.100000e-01	1.000000e-02	0.0	4.200000e-01	1.000000e-02	0.0	4.300000e-01	1.000000e-02	0.0	4.400000e-01	1.000000e-02	0.0	4.500000e-01	1.000000e-02	0.0	4.600000e-01	1.000000e-02	0.0	4.700000e-01	1.000000e-02	0.0	4.800000e-01	1.000000e-02	0.0	4.900000e-01	1.000000e-02	0.0	5.000000e-01	1.000000e-02	0.0	5.100000e-01	1.000000e-02	0.0	5.200000e-01	1.000000e-02	0.0	5.300000e-01	1.000000e-02	0.0	5.400000e-01	1.000000e-02	0.0	5.500000e-01	1.000000e-02	0.0	5.600000e-01	1.000000e-02	0.0	5.700000e-01	1.000000e-02	0.0	5.800000e-01	1.000000e-02	0.0	5.900000e-01	1.000000e-02	0.0	6.000000e-01	1.000000e-02	0.0	6.100000e-01	1.000000e-02	0.0	6.200000e-01	1.000000e-02	0.0	6.300000e-01	1.000000e-02	0.0	6.400000e-01	1.000000e-02	0.0	6.500000e-01	1.000000e-02	0.0	6.600000e-01	1.000000e-02	0.0	6.700000e-01	1.000000e-02	0.0	6.800000e-01	1.000000e-02	0.0	6.900000e-01	1.000000e-02	0.0	7.000000e-01	1.000000e-02	0.0	7.100000e-01	1.000000e-02	0.0	7.200000e-01	1.000000e-02	0.0	7.300000e-01	1.000000e-02	0.0	7.400000e-01	1.000000e-02	0.0	7.500000e-01	1.000000e-02	0.0	7.600000e-01	1.000000e-02	0.0	7.700000e-01	1.000000e-02	0.0	7.800000e-01	1.000000e-02	0.0	7.900000e-01	1.000000e-02	0.0	8.000000e-01	1.000000e-02	0.0	8.100000e-01	1.000000e-02	0.0	8.200000e-01	1.000000e-02	0.0	8.300000e-01	1.000000e-02	0.0	8.400000e-01	1.000000e-02	0.0	8.500000e-01	1.000000e-02	0.0	8.600000e-01	1.000000e-02	0.0	8.700000e-01	1.000000e-02	0.0	8.800000e-01	1.000000e-02	0.0	8.900000e-01	1.000000e-02	0.0	9.000000e-01	1.000000e-02	0.0	9.100000e-01	1.000000e-02	0.0	9.200000e-01	1.000000e-02	0.0	9.300000e-01	1.000000e-02	0.0	9.400000e-01	1.000000e-02	0.0	9.500000e-01	1.000000e-02	0.0	9.600000e-01	1.000000e-02	0.0	9.700000e-01	1.000000e-02	0.0	9.800000e-01	1.000000e-02	0.0	9.900000e-01	1.000000e-02	0.0	1.000000e+00	1.000000e-02	0.0	0.000000e+00	2.000000e-02	0.0	1.000000e-02	2.000000e-02	0.0	2.000000e-02	2.000000e-02	0.0	3.000000e-02	2.000000e-02	0.0	4.000000e-02	2.000000e-02	0.0	5.000000e-02	2.000000e-02	0.0	6.000000e-02	2.000000e-02	0.0	7.000000e-02	2.000000e-02	0.0	8.000000e-02	2.000000e-02	0.0	9.000000e-02	2.000000e-02	0.0	1.000000e-01	2.000000e-02	0.0	1.100000e-01	2.000000e-02	0.0	1.200000e-01	2.000000e-02	0.0	1.300000e-01	2.000000e-02	0.0	1.400000e-01	2.000000e-02	0.0	1.500000e-01	2.000000e-02	0.0	1.600000e-01	2.000000e-02	0.0	1.700000e-01	2.000000e-02	0.0	1.800000e-01	2.000000e-02	0.0	1.900000e-01	2.000000e-02	0.0	2.000000e-01	2.000000e-02	0.0	2.100000e-01	2.000000e-02	0.0	2.200000e-01	2.000000e-02	0.0	2.300000e-01	2.000000e-02	0.0	2.400000e-01	2.000000e-02	0.0	2.500000e-01	2.000000e-02	0.0	2.600000e-01	2.000000e-02	0.0	2.700000e-01	2.000000e-02	0.0	2.800000e-01	2.000000e-02	0.0	2.900000e-01	2.000000e-02	0.0	3.000000e-01	2.000000e-02	0.0	3.100000e-01	2.000000e-02	0.0	3.200000e-01	2.000000e-02	0.0	3.300000e-01	2.000000e-02	0.0	3.400000e-01	2.000000e-02	0.0	3.500000e-01	2.000000e-02	0.0	3.600000e-01	2.000000e-02	0.0	3.700000e-01	2.000000e-02	0.0	3.800000e-01	2.000000e-02	0.0	3.900000e-01	2.000000e-02	0.0	4.000000e-01	2.000000e-02	0.0	4.100000e-01	2.000000e-02	0.0	4.200000e-01	2.000000e-02	0.0	4.300000e-01	2.000000e-02	0.0	4.400000e-01	2.000000e-02	0.0	4.500000e-01	2.000000e-02	0.0	4.600000e-01	2.000000e-02	0.0	4.700000e-01	2.000000e-02	0.0	4.800000e-01	2.000000e-02	0.0	4.900000e-01	2.000000e-02	0.0	5.000000e-01	2.000000e-02	0.0	5.100000e-01	2.000000e-02	0.0	5.200000e-01	2.000000e-02	0.0	5.300000e-01	2.000000e-02	0.0	5.400000e-01	2.000000e-02	0.0	5.500000e-01	2.000000e-02	0.0	5.600000e-01	2.000000e-02	0.0	5.700000e-01	2.000000e-02	0.0	5.800000e-01	2.000000e-02	0.0	5.900000e-01	2.000000e-02	0.0	6.000000e-01	2.000000e-02	0.0	6.100000e-01	2.000000e-02	0.0	6.200000e-01	2.000000e-02	0.0	6.300000e-01	2.000000e-02	0.0	6.400000e-01	2.000000e-02	0.0	6.500000e-01	2.000000e-02	0.0	6.600000e-01	2.000000e-02	0.0	6.700000e-01	2.000000e-02	0.0	6.800000e-01	2.000000e-02	0.0	6.900000e-01	2.000000e-02	0.0	7.000000e-01	2.000000e-02	0.0	7.100000e-01	2.000000e-02	0.0	7.200000e-01	2.000000e-02	0.0	7.300000e-01	2.000000e-02	0.0	7.400000e-01	2.000000e-02	0.0	7.500000e-01	2.000000e-02	0.0	7.600000e-01	2.000000e-02	0.0	7.700000e-01	2.000000e-02	0.0	7.800000e-01	2.000000e-02	0.0	7.900000e-01	2.000000e-02	0.0	8.000000e-01	2.000000e-02	0.0	8.100000e-01	2.000000e-02	0.0	8.200000e-01	2.000000e-02	0.0	8.300000e-01	2.000000e-02	0.0	8.400000e-01	2.000000e-02	0.0	8.500000e-01	2.000000e-02	0.0	8.600000e-01	2.000000e-02	0.0	8.700000e-01	2.000000e-02	0.0	8.800000e-01	2.000000e-02	0.0	8.900000e-01	2.000000e-02	0.0	9.000000e-01	2.000000e-02	0.0	9.100000e-01	2.000000e-02	0.0	9.200000e-01	2.000000e-02	0.0	9.300000e-01	2.000000e-02	0.0	9.400000e-01	2.000000e-02	0.0	9.500000e-01	2.000000e-02	0.0	9.600000e-01	2.000000e-02	0.0	9.700000e-01	2.000000e-02	0.0	9.800000e-01	2.000000e-02	0.0	9.900000e-01	2.000000e-02	0.0	1.000000e+00	2.000000e-02	0.0	0.000000e+00	3.000000e-02	0.0	1.000000e-02	3.000000e-02	0.0	2.000000e-02	3.000000e-02	0.0	3.000000e-02	3.000000e-02	0.0	4.000000e-02	3.000000e-02	0.0	5.000000e-02	3.000000e-02	0.0	6.000000e-02	3.000000e-02	0.0	7.000000e-02	3.000000e-02	0.0	8.000000e-02	3.000000e-02	0.0	9.000000e-02	3.000000e-02	0.0	1.000000e-01	3.000000e-02	0.0	1.100000e-01	3.000000e-02	0.0	1.200000e-01	3.000000e-02	0.0	1.300000e-01	3.000000e-02	0.0	1.400000e-01	3.000000e-02	0.0	1.500000e-01	3.000000e-02	0.0	1.600000e-01	3.000000e-02	0.0	1.700000e-01	3.000000e-02	0.0	1.800000e-01	3.000000e-02	0.0	1.900000e-01	3.000000e-02	0.0	2.000000e-01	3.000000e-02	0.0	2.100000e-01	3.000000e-02	0.0	2.200000e-01	3.000000e-02	0.0	2.300000e-01	3.000000e-02	0.0	2.400000e-01	3.000000e-02	0.0	2.500000e-01	3.000000e-02	0.0	2.600000e-01	3.000000
[...]
POINT_DATA 10201

SCALARS Height double 1
LOOKUP_TABLE default
9.721863e-01	9.764785e-01	9.816566e-01	9.920887e-01	1.003837e+00	1.014561e+00	1.023058e+00	1.029073e+00	1.031657e+00	1.029089e+00	1.017667e+00	1.001820e+00	9.895864e-01	9.840641e-01	9.828899e-01	9.833006e-01	9.839827e-01	9.845539e-01	9.849525e-01	9.851742e-01	9.852409e-01	9.851729e-01	9.849585e-01	9.845827e-01	9.840220e-01	9.832581e-01	9.822525e-01	9.809891e-01	9.794276e-01	9.775487e-01	9.754054e-01	9.732209e-01	9.713212e-01	9.700342e-01	9.694256e-01	9.694107e-01	9.699599e-01	9.714470e-01	9.741582e-01	9.784899e-01	9.848767e-01	9.935980e-01	1.005053e+00	1.019227e+00	1.034462e+00	1.047565e+00	1.056415e+00	1.061000e+00	1.061861e+00	1.057987e+00	1.045277e+00	1.026066e+00	1.010403e+00	1.003071e+00	1.000809e+00	1.000232e+00	1.000076e+00	1.000026e+00	1.000008e+00	1.000002e+00	1.000001e+00	1.000000e+00	1.000000e+00	1.000000e+00	1.000000e+00	1.000000e+00	1.000000e+00	1.000000e+00	1.000000e+00	1.000000e+00	1.000000e+00	1.000000e+00	1.000000e+00	1.000000e+00	1.000000e+00	1.000000e+00	1.000000e+00	1.000000e+00	1.000000e+00	1.000000e+00	1.000000e+00	1.000000e+00	1.000000e+00	1.000000e+00	1.000000e+00	1.000000e+00	1.000000e+00	1.000000e+00	1.000000e+00	1.000000e+00	1.000000e+00	1.000000e+00	1.000000e+00	1.000000e+00	1.000000e+00	1.000000e+00	1.000000e+00	1.000000e+00	1.000000e+00	1.000000e+00	1.000000e+00	9.764785e-01	9.807261e-01	9.850653e-01	9.946972e-01	1.005780e+00	1.016137e+00	1.024288e+00	1.028943e+00	1.030573e+00	1.027665e+00	1.016336e+00	1.000645e+00	9.882752e-01	9.826640e-01	9.815798e-01	9.820518e-01	9.827455e-01	9.833249e-01	9.837371e-01	9.839694e-01	9.840392e-01	9.839677e-01	9.837498e-01	9.833690e-01	9.828029e-01	9.820564e-01	9.811065e-01	9.799571e-01	9.786002e-01	9.770277e-01	9.752788e-01	9.734697e-01	9.717528e-01	9.704283e-01	9.698579e-01	9.700386e-01	9.707583e-01	9.726364e-01	9.758147e-01	9.804835e-01	9.871072e-01	9.960950e-01	1.007580e+00	1.021347e+00	1.036066e+00	1.048832e+00	1.057017e+00	1.060411e+00	1.060565e+00	1.056230e+00	1.043566e+00	1.025214e+00	1.010080e+00	1.002807e+00	1.000660e+00	1.000178e+00	1.000060e+00	1.000021e+00	1.000007e+00	1.000002e+00	1.000000e+00	1.000000e+00	1.000000e+00	1.000000e+00	1.000000e+00	1.000000e+00	1.000000e+00	1.000000e+00	1.000000e+00	1.000000e+00	1.000000e+00	1.000000e+00	1.000000e+00	1.000000e+00	1.000000e+00	1.000000e+00	1.000000e+00	1.000000e+00	1.000000e+00	1.000000e+00	1.000000e+00	1.000000e+00	1.000000e+00	1.000000e+00	1.000000e+00	1.000000e+00	1.000000e+00	1.000000e+00	1.000000e+00	1.000000e+00	1.000000e+00	1.000000e+00	1.000000e+00	1.000000e+00	1.000000e+00	1.000000e+00	1.000000e+00	1.000000e+00	1.000000e+00	1.000000e+00	1.000000e+00	9.816566e-01	9.850653e-01	9.880572e-01	9.955970e-01	1.004915e+00	1.014645e+00	1.022679e+00	1.027005e+00	1.028307e+00	1.025196e+00	1.016659e+00	1.005811e+00	9.949311e-01	9.864379e-01	9.826061e-01	9.819643e-01	9.822392e-01	9.826574e-01	9.830100e-01	9.832352e-01	9.833137e-01	9.832495e-01	9.830526e-01	9.827269e-01	9.822697e-01	9.816924e-01	9.810221e-01	9.802842e-01	9.794799e-01	9.785833e-01	9.775262e-01	9.761818e-01	9.745890e-01	9.729945e-01	9.718935e-01	9.717121e-01	9.725171e-01	9.748664e-01	9.785799e-01	9.835114e-01	9.900093e-01	9.986050e-01	1.009121e+00	1.020704e+00	1.032445e+00	1.043380e+00	1.051903e+00	1.055586e+00	1.055501e+00	1.051094e+00	1.040267e+00	1.027943e+00	1.015920e+00	1.006191e+00	1.001566e+00	1.000341e+00	1.000092e+00	1.000031e+00	1.000010e+00	1.000003e+00	1.000001e+00	1.000000e+00	1.000000e+00	1.000000e+00	1.000000e+00	1.000000e+00	1.000000e+00	1.000000e+00	1.000000e+00	1.000000e+00	1.000000e+00	1.000000e+00	1.000000e+00	1.000000e+00	1.000000e+00	1.000000e+00	1.000000e+00	1.000000e+00	1.000000e+00	1.000000e+00	1.000000e+00	1.000000e+00	1.000000e+00	1.000000e+00	1.000000e+00	1.000000e+00	1.000000e+00	1.000000e+00	1.000000e+00	1.000000e+00	1.000000e+00	1.000000e+00	1.000000e+00	1.000000e+00	1.000000e+00	1.000000e+00	1.000000e+00	1.000000e+00	1.000000e+00	1.000000e+00	1.000000e+00	9.920887e-01	9.946972e-01	9.955970e-01	1.000659e+00	1.007465e+00	1.015073e+00	1.021296e+00	1.024200e+00	1.024245e+00	1.020476e+00	1.013882e+00	1.007488e+00	9.997991e-01	9.910102e-01	9.847130e-01	9.821639e-01	9.816613e-01	9.817609e-01	9.819578e-01	9.821171e-01	9.821867e-01	9.821516e-01	9.820265e-01	9.818258e-01	9.815543e-01	9.812298e-01	9.808721e-01	9.804820e-01	9.800340e-01	9.794858e-01	9.788258e-01	9.781374e-01	9.774612e-01	9.767542e-01	9.761356e-01	9.760587e-01	9.768572e-01	9.793355e-01	9.834282e-01	9.888750e-01	9.957608e-01	1.003937e+00	1.012919e+00	1.021639e+00	1.029830e+00	1.038612e+00	1.046189e+00	1.048997e+00	1.048127e+00	1.042921e+00	1.034891e+00	1.028152e+00	1.020839e+00	1.011385e+00	1.003753e+00	1.000812e+00	1.000172e+00	1.000048e+00	1.000016e+00	1.000005e+00	1.000001e+00	1.000000e+00	1.000000e+00	1.000000e+00	1.000000e+00	1.000000e+00	1.000000e+00	1.000000e+00	1.000000e+00	1.000000e+00	1.000000e+00	1.000000e+00	1.000000e+00	1.000000e+00	1.000000e+00	1.000000e+00	1.000000e+00	1.000000e+00	1.000000e+00	1.000000e+00	1.000000e+00	1.000000e+00	1.000000e+00	1.000000e+00	1.000000e+00	1.000000e+00	1.000000e+00	1.000000e+00	1.000000e+00	1.000000e+00	1.000000e+00	1.000000e+00	1.000000e+00	1.000000e+00	1.000000e+00	1.000000e+00	1.000000e+00	1.000000e+00	1.000000e+00	1.000000e+00	1.000000e+00	1.003837e+00	1.005780e+00	1.004915e+00	1.007465e+00	1.011337e+00	1.015679e+00	1.018981e+00	1.020054e+00	1.019058e+00	1.015883e+00	1.012005e+00	1.008472e+00	1.004077e+00	9.966827e-01	9.883514e-01	9.836592e-01	9.822023e-01	9.819153e-01	9.819326e-01	9.820076e-01	9.820629e-01	9.820640e-01	9.820085e-01	9.818996e-01	9.817392e-01	9.815282e-01	9.812824e-01	9.810224e-01	9.807499e-01	9.804896e-01	9.803553e-01	9.804491e-01	9.807514e-01	9.811791e-01	9.817159e-01	9.823864e-01	9.836388e-01	9.861819e-01	9.903735e-01	9.960287e-01	1.002578e+00	1.009237e+00	1.015303e+00	1.020859e+00	1.026709e+00	1.032933e+00	1.037828e+00	1.039599e+00	1.038720e+00	1.035021e+00	1.030886e+00	1.027988e+00	1.024429e+00	1.017069e+00	1.007614e+00	1.002001e+00	1.000396e+00	1.000089e+00	1.000027e+00	1.000009e+00	1.000003e+00	1.000001e+00	1.000000e+00	1.000000e+00	1.000000e+00	1.000000e+00	1.000000e+00	1.000000e+00	1.000000e+00	1.000000e+00	1.000000e+00	1.000000e+00	1.000000e+00	1.000000e+00	1.000000e+00	1.000000e+00	1.000000e+00	1.000000e+00	1.000000e+00	1.000000e+00	1.000000e+00	1.000000e+00	1.000000e+00	1.000000e+00	1.000000e+00	1.000000e+00	1.000000e+00	1.000000e+00	1.000000e+00	1.000000e+00	1.000000e+00	1.000000e+00	1.000000e+00	1.000000e+00	1.000000e+00	1.000000e+00	1.000000e+00	1.000000e+00	1.000000e+00	1.000000e+00	1.000000e+00	1.014561e+00	1.016137e+00	1.014645e+00	1.015073e+00	1.015679e+00	1.016103e+00	1.015925e+00	1.015496e+00	1.014755e+00	1.013318e+00	1.011305e+00	1.009881e+00	1.007866e+00	1.002341e+00	9.934730e-01	9.863104e-01	9.833129e-01	9.825028e-01	9.823481e-01	9.823600e-01	9.824038e-01	9.824174e-01	9.823877e-01	9.823109e-01	9.822071e-01	9.820978e-01	9.820271e-01	9.820296e-01	9.821415e-01	9.824332e-01	9.829320e-01	9.837785e-01	9.849930e-01	9.865902e-01	9.884367e-01	9.903292e-01	9.923405e-01	9.949640e-01	9.988351e-01	1.003858e+00	1.008896e+00	1.012910e+00	1.016015e+00	1.019204e+00	1.023110e+00	1.025930e+00	1.027141e+00	1.027810e+00	1.028778e+00	1.028739e+00	1.028366e+00	1.027899e+00	1.026381e+00	1.021535e+00	1.012425e+00	1.004291e+00	1.000948e+00	1.000188e+00	1.000046e+00	1.000014e+00	1.000005e+00	1.000001e+00	1.000000e+00	1.000000e+00	1.000000e+00	1.000000e+00	1.000000e+00	1.000000e+00	1.000000e+00	1.000000e+00	1.000000e+00	1.000000e+00	1.000000e+00	1.000000e+00	1.000000e+00	1.000000e+00	1.000000e+00	1.000000e+00	1.000000e+00	1.000000e+00	1.000000e+00	1.000000e+00	1.000000e+00	1.000000e+00	1.000000e+00	1.000000e+00	1.000000e+00	1.000000e+00	1.000000e+00	1.000000e+00	1.000000e+00	1.000000e+00	1.000000e+00	1.000000e+00	1.000000e+00	1.000000e+00	1.000000e+00	1.000000e+00	1.000000e+00	1.000000e+00	1.000000e+00	1.023058e+00	1.024288e+00	1.022679e+00	1.021296e+00	1.018981e+00	1.015925e+00	1.013302e+00	1.011696e+00	1.012075e+00	1.013321e+00	1.013381e+00	1.013026e+00	1.011804e+00	1.007743e+00	9.997024e-01	9.908960e-01	9.857576e-01	9.839574e-01	9.834442e-01	9.833087e-01	9.833096e-01	9.833403e-01	9.833815e-01	9.834216e-01	9.834877e-01	9.836426e-01	9.839213e-01	9.843356e-01	9.849617e-01	9.858415e-01	9.870392e-01	9.886311e-01	9.906788e-01	9.931995e-01	9.960991e-01	9.991554e-01	1.002101e+00	1.004888e+00	1.007722e+00	1.010562e+00	1.012824e+00	1.014334e+00	1.015652e+00	1.017088e+00	1.017395e+00	1.016650e+00	1.015645e+00	1.015988e+00	1.019807e+00	1.024901e+00	1.027169e+00	1.027496e+00	1.027070e+00	1.024315e+00	1.016990e+00	1.007676e+00	1.002091e+00	1.000417e+00	1.000087e+00	1.000024e+00	1.000007e+00	1.000002e+00	1.000001e+00	1.000000e+00	1.000000e+00	1.000000e+00	1.000000e+00	1.000000e+00	1.000000e+00	1.000000e+00	1.000000e+00	1.000000e+00	1.000000e+00	1.000000e+00	1.000000e+00	1.000000e+00	1.000000e+00	1.000000e+00	1.000000e+00	1.000000e+00	1.000000e+00	1.000000e+00	1.000000e+00	1.000000e+00	1.000000e+00	1.000000e+00	1.000000e+00	1.000000e+00	1.000000e+00	1.000000e+00	1.000000e+00	1.000000e+00	1.000000e+00	1.000000e+00	1.000000e+00	1.000000e+00	1.000000e+00	1.000000e+00	1.000000e+00	1.000000e+00	1.000000e+00	1.029073e+00	1.028943e+00	1.027005e+00	1.024200e+00	1.020054e+00	1.015496e+00	1.011696e+00	1.010003e+00	1.012281e+00	1.016838e+00	1.018507e+00	1.017823e+00	1.016608e+00	1.013469e+00	1.006861e+00	9.976262e-01	9.903980e-01	9.871638e-01	9.860521e-01	9.856750e-01	9.855943e-01	9.856504e-01	9.858024e-01	9.860343e-01	9.863697e-01	9.868423e-01	9.875170e-01	9.884115e-01	9.895636e-01	9.910239e-01	9.928542e-01	9.951053e-01	9.978062e-01	1.000956e+00	1.004486e+00	1.008162e+00	1.011494e+00	1.013787e+00	1.014730e+00	1.014734e+00	1.014496e+00	1.014485e+00	1.014369e+00	1.012730e+00	1.009078e+00	1.005863e+00	1.004764e+00	1.006752e+00	1.013798e+00	1.021753e+00	1.026051e+00	1.027087e+00	1.027146e+00	1.025656e+00	1.020496e+00	1.011585e+00	1.004013e+00	1.000900e+00	1.000174e+00	1.000040e+00	1.000012e+00	1.000004e+00	1.000001e+00	1.000000e+00	1.000000e+00	1.000000e+00	1.000000e+00	1.000000e+00	1.000000e+00	1.000000e+00	1.000000e+00	1.000000e+00	1.000000e+00	1.000000e+00	1.000000e+00	1.000000e+00	1.000000e+00	1.000000e+00	1.000000e+00	1.000000e+00	1.000000e+00	1.000000e+00	1.000000e+00	1.000000e+00	1.000000e+00	1.000000e+00	1.000000e+00	1.000000e+00	1.000000e+00	1.000000e+00	1.000000e+00	1.000000e+00	1.000000e+00	1.000000e+00	1.000000e+00	1.000000e+00	1.000000e+00	1.000000e+00	1.000000e+00	1.000000e+00	1.000000e+00	1.031657e+00	1.030573e+00	1.028307e+00	1.024245e+00	1.019058e+00	1.014755e+00	1.012075e+00	1.012281e+00	1.016340e+00	1.021776e+00	1.024877e+00	1.024184e+00	1.022739e+00	1.020094e+00	1.014821e+00	1.006255e+00	9.975161e-01	9.925406e-01	9.906623e-01	9.899815e-01	9.897793e-01	9.898651e-01	9.901192e-01	9.905285e-01	9.911287e-01	9.919370e-01	9.929822e-01	9.942963e-01	9.959106e-01	9.978669e-01	1.000200e+00	1.002926e+00	1.006026e+00	1.009436e+00	1.012970e+00	1.016233e+00	1.018508e+00	1.019354e+00	1.018859e+00	1.016976e+00	1.015219e+00	1.013579e+00	1.010436e+00	1.004817e+00	9.991890e-01	9.965288e-01	9.966020e-01	1.001133e+00	1.009766e+00	1.018648e+00	1.024533e+00	1.026545e+00	1.026821e+00	1.026141e+00	1.022818e+00	1.015279e+00	1.006628e+00	1.001774e+00	1.000351e+00	1.000071e+00	1.000018e+00	1.000005e+00	1.000002e+00	1.000000e+00	1.000000e+00	1.000000e+00	1.000000e+00	1.000000e+00	1.000000e+00	1.000000e+00	1.000000e+00	1.000000e+00	1.000000e+00	1.000000e+00	1.000000e+00	1.000000e+00	1.000000e+00	1.000000e+00	1.000000e+00	1.000000e+00	1.000000e+00	1.000000e+00	1.000000e+00	1.000000e+00	1.000000e+00	1.000000e+00	1.000000e+00	1.000000e+00	1.000000e+00	1.000000e+00	1.000000e+00	1.000000e+00	1.000000e+00	1.000000e+00	1.000000e+00	1.000000e+00	1.000000e+00	1.000000e+00	1.000000e+00	1.000000e+00	1.000000e+00	1.029089e+00	1.027665e+00	1.025196e+00	1.020476e+00	1.015883e+00	1.013318e+00	1.013321e+00	1.016838e+00	1.021776e+00	1.026862e+00	1.031181e+00	1.031600e+00	1.030078e+00	1.027744e+00	1.023528e+00	1.016134e+00	1.006829e+00	1.000113e+00	9.972150e-01	9.962071e-01	9.959717e-01	9.959848e-01	9.962718e-01	9.968561e-01	9.976900e-01	9.987646e-01	1.000102e+00	1.001735e+00	1.003685e+00	1.005954e+00	1.008527e+00	1.011350e+00	1.014301e+00	1.017148e+00	1.019544e+00	1.021155e+00	1.021722e+00	1.021516e+00	1.020395e+00	1.018027e+00	1.014484e+00	1.009313e+00	1.002387e+00	9.955056e-01	9.913821e-01	9.904131e-01	9.920468e-01	9.980390e-01	1.006530e+00	1.015435e+00	1.022520e+00	1.025782e+00	1.026382e+00	1.026233e+00	1.024178e+00	1.018283e+00	1.009586e+00	1.003113e+00	1.000678e+00	1.000130e+00	1.000029e+00	1.000008e+00	1.000002e+00	1.000001e+00	1.000000e+00	1.000000e+00	1.000000e+00	1.000000e+00	1.000000e+00	1.000000e+00	1.000000e+00	1.000000e+00	1.000000e+00	1.000000e+00	1.000000e+00	1.000000e+00	1.000000e+00	1.000000e+00	1.000000e+00	1.000000e+00	1.000000e+00	1.000000e+00	1.000000e+00	1.000000e+00	1.000000e+00	1.000000e+00	1.000000e+00	1.000000e+00	1.000000e+00	1.000000e+00	1.000000e+00	1.000000e+00	1.000000e+00	1.000000e+00	1.000000e+00	1.000000e+00	1.000000e+00	1.000000e+00	1.000000e+00	1.000000e+00	1.000000e+00	1.017667e+00	1.016336e+00	1.016659e+00	1.013882e+00	1.012005e+00	1.011305e+00	1.013381e+00	1.018507e+00	1.024877e+00	1.031181e+00	1.036425e+00	1.038786e+00	1.037692e+00	1.035849e+00	1.032554e+00	1.026513e+00	1.017551e+00	1.009484e+00	1.005407e+00	1.004036e+00	1.003730e+00	1.003686e+00	1.003931e+00	1.004622e+00	1.005600e+00	1.006811e+00	1.008279e+00	1.010017e+00	1.011987e+00	1.014118e+00	1.016304e+00	1.018404e+00	1.020209e+00	1.021562e+00	1.022329e+00	1.022603e+00	1.022497e+00	1.022104e+00	1.020588e+00	1.016646e+00	1.009584e+00	1.000880e+00	9.933985e-01	9.889722e-01	9.873480e-01	9.873801e-01	9.900898e-01	9.958985e-01	1.003614e+00	1.012266e+00	1.020169e+00	1.024756e+00	1.025950e+00	1.026050e+00	1.024828e+00	1.020487e+00	1.012468e+00	1.004860e+00	1.001210e+00	1.000235e+00	1.000047e+00	1.000012e+00	1.000003e+00	1.000001e+00	1.000000e+00	1.000000e+00	1.000000e+00	1.000000e+00	1.000000e+00	1.000000e+00	1.000000e+00	1.000000e+00	1.000000e+00	1.000000e+00	1.000000e+00	1.000000e+00	1.000000e+00	1.000000e+00	1.000000e+00	1.000000e+00	1.000000e+00	1.000000e+00	1.000000e+00	1.000000e+00	1.000000e+00	1.000000e+00	1.000000e+00	1.000000e+00	1.000000e+00	1.000000e+00	1.000000e+00	1.000000e+00	1.000000e+00	1.000000e+00	1.000000e+00	1.000000e+00	1.000000e+00	1.000000e+00	1.000000e+00	1.000000e+00	1.000000e+00	1.001820e+00	1.000645e+00	1.005811e+00	1.007488e+00	1.008472e+00	1.009881e+00	1.013026e+00	1.017823e+00	1.024184e+00	1.031600e+00	1.038786e+00	1.043679e+00	1.044122e+00	1.042768e+00	1.040454e+00	1.035878e+00	1.028034e+00	1.019394e+00	1.014214e+00	1.012428e+00	1.011987e+00	1.011844e+00	1.012065e+00	1.012687e+00	1.013592e+00	1.014679e+00	1.015925e+00	1.017274e+00	1.018627e+00	1.019882e+00	1.020970e+00	1.021804e+00	1.022369e+00	1.022720e+00	1.022907e+00	1.022871e+00	1.022432e+00	1.020937e+00	1.017229e+00	1.010199e+00	1.000784e+00	9.926126e-01	9.879860e-01	9.861997e-01	9.858408e-01	9.864120e-01	9.891031e-01	9.940946e-01	1.000988e+00	1.009320e+00	1.017717e+00	1.023491e+00	1.025484e+00	1.025755e+00	1.025153e+00	1.021963e+00	1.014989e+00	1.006842e+00	1.001968e+00	1.000405e+00	1.000077e+00	1.000017e+00	1.000005e+00	1.000001e+00	1.000000e+00	1.000000e+00	1.000000e+00	1.000000e+00	1.000000e+00	1.000000e+00	1.000000e+00	1.000000e+00	1.000000e+00	1.000000e+00	1.000000e+00	1.000000e+00	1.000000e+00	1.000000e+00	1.000000e+00	1.000000e+00	1.000000e+00	1.000000e+00	1.000000e+00	1.000000e+00	1.000000e+00	1.000000e+00	1.000000e+00	1.000000e+00	1.000000e+00	1.000000e+00	1.000000e+00	1.000000e+00	1.000000e+00	1.000000e+00	1.000000e+00	1.000000e+00	1.000000e+00	1.000000e+00	1.000000e+00	1.000000e+00	1.000000e+00	9.895864e-01	9.882752e-01	9.949311e-01	9.997991e-01	1.004077e+00	1.007866e+00	1.011804e+00	1.016608e+00	1.022739e+00	1.030078e+00	1.037692e+00	1.044122e+00	1.047077e+00	1.046809e+00	1.045545e+00	1.042261e+00	1.035790e+00	1.027369e+00	1.021344e+00	1.019052e+00	1.018479e+00	1.018248e+00	1.018318e+00	1.018714e+00	1.019272e+00	1.019887e+00	1.020506e+00	1.021068e+00	1.021542e+00	1.021930e+00	1.022260e+00	1.022552e+00	1.022792e+00	1.022861e+00	1.022586e+00	1.021706e+00	1.019658e+00	1.015517e+00	1.008902e+00	1.000986e+00	9.938199e-01	9.888314e-01	9.863878e-01	9.856646e-01	9.855720e-01	9.862218e-01	9.883943e-01	9.925302e-01	9.987351e-01	1.006724e+00	1.015342e+00	1.022070e+00	1.024952e+00	1.025448e+00	1.025207e+00	1.022918e+00	1.017022e+00	1.008852e+00	1.002924e+00	1.000655e+00	1.000124e+00	1.000026e+00	1.000006e+00	1.000002e+00	1.000000e+00	1.000000e+00	1.000000e+00	1.000000e+00	1.000000e+00	1.000000e+00	1.000000e+00	1.000000e+00	1.000000e+00	1.000000e+00	1.000000e+00	1.000000e+00	1.000000e+00	1.000000e+00	1.000000e+00	1.000000e+00	1.000000e+00	1.000000e+00	1.000000e+00	1.000000e+00	1.000000e+00	1.000000e+00	1.000000e+00	1.000000e+00	1.000000e+00	1.000000e+00	1.000000e+00	1.000000e+00	1.000000e+00	1.000000e+00	1.000000e+00	1.000000e+00	1.000000e+00	1.000000e+00	1.000000e+00	1.000000e+00	1.000000e+00	9.840641e-01	9.826640e-01	9.864379e-01	9.910102e-01	9.966827e-01	1.002341e+00	1.007743e+00	1.013469e+00	1.020094e+00	1.027744e+00	1.035849e+00	1.042768e+00	1.046809e+00	1.047419e+00	1.046948e+00	1.044976e+00	1.039836e+00	1.031879e+00	1.025138e+00	1.022157e+00	1.021375e+00	1.021091e+00	1.021002e+00	1.021138e+00	1.021350e+00	1.021552e+00	1.021735e+00	1.021912e+00	1.022094e+00	1.022301e+00	1.022465e+00	1.022482e+00	1.022191e+00	1.021422e+00	1.019768e+00	1.016787e+00	1.012033e+00	1.005976e+00	9.999571e-01	9.950960e-01	9.913661e-01	9.883203e-01	9.863574e-01	9.857601e-01	9.857224e-01	9.861845e-01	9.878106e-01	9.912646e-01	9.968984e-01	1.004520e+00	1.013160e+00	1.020572e+00	1.024344e+00	1.025159e+00	1.025119e+00	1.023490e+00	1.018566e+00	1.010721e+00	1.004006e+00	1.000984e+00	1.000190e+00	1.000037e+00	1.000009e+00	1.000002e+00	1.000001e+00	1.000000e+00	1.000000e+00	1.000000e+00	1.000000e+00	1.000000e+00	1.000000e+00	1.000000e+00	1.000000e+00	1.000000e+00	1.000000e+00	1.000000e+00	1.000000e+00	1.000000e+00	1.000000e+00	1.000000e+00	1.000000e+00	1.000000e+00	1.000000e+00	1.000000e+00	1.000000e+00	1.000000e+00	1.000000e+00	1.000000e+00	1.000000e+00	1.000000e+00	1.000000e+00	1.000000e+00	1.000000e+00	1.000000e+00	1.000000e+00	1.000000e+00	1.000000e+00	1.000000e+00	1.000000e+00	1.000000e+00	1.000000e+00	9.828899e-01	9.815798e-01	9.826061e-01	9.847130e-01	9.883514e-01	9.934730e-01	9.997024e-01	1.006861e+00	1.014821e+00	1.023528e+00	1.032554e+00	1.040454e+00	1.045545e+00	1.046948e+00	1.046652e+00	1.045186e+00	1.041057e+00	1.033822e+00	1.026689e+00	1.023018e+00	1.021939e+00	1.021639e+00	1.021492e+00	1.021540e+00	1.021674e+00	1.021787e+00	1.021867e+00	1.021916e+00	1.021893e+00	1.021708e+00	1.021284e+00	1.020413e+00	1.018832e+00	1.016297e+00	1.012546e+00	1.007775e+00	1.002783e+00	9.985850e-01	9.956226e-01	9.934505e-01	9.913152e-01	9.888711e-01	9.867854e-01	9.859830e-01	9.858991e-01	9.861545e-01	9.873827e-01	9.903134e-01	9.954557e-01	1.002692e+00	1.011235e+00	1.019108e+00	1.023683e+00	1.024885e+00	1.024975e+00	1.023834e+00	1.019713e+00	1.012334e+00	1.005119e+00	1.001378e+00	1.000277e+00	1.000052e+00	1.000011e+00	1.000003e+00	1.000001e+00	1.000000e+00	1.000000e+00	1.000000e+00	1.000000e+00	1.000000e+00	1.000000e+00	1.000000e+00	1.000000e+00	1.000000e+00	1.000000e+00	1.000000e+00	1.000000e+00	1.000000e+00	1.000000e+00	1.000000e+00	1.000000e+00	1.000000e+00	1.000000e+00	1.000000e+00	1.000000e+00	1.000000e+00	1.000000e+00	1.000000e+00	1.000000e+00	1.000000e+00	1.000000e+00	1.000000e+00	1.000000e+00	1.000000e+00	1.000000e+00	1.000000e+00	1.000000e+00	1.000000e+00	1.000000e+00	1.000000e+00	1.000000e+00	9.833006e-01	9.820518e-01	9.819643e-01	9.821639e-01	9.836592e-01	9.863104e-01	9.908960e-01	9.976262e-01	1.006255e+00	1.016134e+00	1.026513e+00	1.035878e+00	1.042261e+00	1.044976e+00	1.045186e+00	1.044291e+00	1.041042e+00	1.034478e+00	1.027267