# vtk DataFile Version 3.0
vtk output
ASCII
DATASET STRUCTURED_GRID
DIMENSIONS 101 101 1
POINTS 10201 double
0.000000e+00	0.000000e+00	0.0	1.000000e-02	0.000000e+00	0.0	2.000000e-02	0.000000e+00	0.0	3.000000e-02	0.000000e+00	0.0	4.000000e-02	0.000000e+00	0.0	5.000000e-02	0.000000e+00	0.0	6.000000e-02	0.000000e+00	0.0	7.000000e-02	0.000000e+00	0.0	8.000000e-02	0.000000e+00	0.0	9.000000e-02	0.000000e+00	0.0	1.000000e-01	0.000000e+00	0.0	1.100000e-01	0.000000e+00	0.0	1.200000e-01	0.000000e+00	0.0	1.300000e-01	0.000000e+00	0.0	1.400000e-01	0.000000e+00	0.0	1.500000e-01	0.000000e+00	0.0	1.600000e-01	0.000000e+00	0.0	1.700000e-01	0.000000e+00	0.0	1.800000e-01	0.000000e+00	0.0	1.900000e-01	0.000000e+00	0.0	2.000000e-01	0.000000e+00	0.0	2.100000e-01	0.000000e+00	0.0	2.200000e-01	0.000000e+00	0.0	2.300000e-01	0.000000e+00	0.0	2.400000e-01	0.000000e+00	0.0	2.500000e-01	0.000000e+00	0.0	2.600000e-01	0.000000e+00	0.0	2.700000e-01	0.000000e+00	0.0	2.800000e-01	0.000000e+00	0.0	2.900000e-01	0.000000e+00	0.0	3.000000e-01	0.000000e+00	0.0	3.100000e-01	0.000000e+00	0.0	3.200000e-01	0.000000e+00	0.0	3.300000e-01	0.000000e+00	0.0	3.400000e-01	0.000000e+00	0.0	3.500000e-01	0.000000e+00	0.0	3.600000e-01	0.000000e+00	0.0	3.700000e-01	0.000000e+00	0.0	3.800000e-01	0.000000e+00	0.0	3.900000e-01	0.000000e+00	0.0	4.000000e-01	0.000000e+00	0.0	4.100000e-01	0.000000e+00	0.0	4.200000e-01	0.000000e+00	0.0	4.300000e-01	0.000000e+00	0.0	4.400000e-01	0.000000e+00	0.0	4.500000e-01	0.000000e+00	0.0	4.600000e-01	0.000000e+00	0.0	4.700000e-01	0.000000e+00	0.0	4.800000e-01	0.000000e+00	0.0	4.900000e-01	0.000000e+00	0.0	5.000000e-01	0.000000e+00	0.0	5.100000e-01	0.000000e+00	0.0	5.200000e-01	0.000000e+00	0.0	5.300000e-01	0.000000e+00	0.0	5.400000e-01	0.000000e+00	0.0	5.500000e-01	0.000000e+00	0.0	5.600000e-01	0.000000e+00	0.0	5.700000e-01	0.000000e+00	0.0	5.800000e-01	0.000000e+00	0.0	5.900000e-01	0.000000e+00	0.0	6.000000e-01	0.000000e+00	0.0	6.100000e-01	0.000000e+00	0.0	6.200000e-01	0.000000e+00	0.0	6.300000e-01	0.000000e+00	0.0	6.400000e-01	0.000000e+00	0.0	6.500000e-01	0.000000e+00	0.0	6.600000e-01	0.000000e+00	0.0	6.700000e-01	0.000000e+00	0.0	6.800000e-01	0.000000e+00	0.0	6.900000e-01	0.000000e+00	0.0	7.000000e-01	0.000000e+00	0.0	7.100000e-01	0.000000e+00	0.0	7.200000e-01	0.000000e+00	0.0	7.300000e-01	0.000000e+00	0.0	7.400000e-01	0.000000e+00	0.0	7.500000e-01	0.000000e+00	0.0	7.600000e-01	0.000000e+00	0.0	7.700000e-01	0.000000e+00	0.0	7.800000e-01	0.000000e+00	0.0	7.900000e-01	0.000000e+00	0.0	8.000000e-01	0.000000e+00	0.0	8.100000e-01	0.000000e+00	0.0	8.200000e-01	0.000000e+00	0.0	8.300000e-01	0.000000e+00	0.0	8.400000e-01	0.000000e+00	0.0	8.500000e-01	0.000000e+00	0.0	8.600000e-01	0.000000e+00	0.0	8.700000e-01	0.000000e+00	0.0	8.800000e-01	0.000000e+00	0.0	8.900000e-01	0.000000e+00	0.0	9.000000e-01	0.000000e+00	0.0	9.100000e-01	0.000000e+00	0.0	9.200000e-01	0.000000e+00	0.0	9.300000e-01	0.000000e+00	0.0	9.400000e-01	0.000000e+00	0.0	9.500000e-01	0.000000e+00	0.0	9.600000e-01	0.000000e+00	0.0	9.700000e-01	0.000000e+00	0.0	9.800000e-01	0.000000e+00	0.0	9.900000e-01	0.000000e+00	0.0	1.000000e+00	0.000000e+00	0.0	0.000000e+00	1.000000e-02	0.0	1.000000e-02	1.000000e-02	0.0	2.000000e-02	1.000000e-02	0.0	3.000000e-02	1.000000e-02	0.0	4.000000e-02	1.000000e-02	0.0	5.000000e-02	1.000000e-02	0.0	6.000000e-02	1.000000e-02	0.0	7.000000e-02	1.000000e-02	0.0	8.000000e-02	1.000000e-02	0.0	9.000000e-02	1.000000e-02	0.0	1.000000e-01	1.000000e-02	0.0	1.100000e-01	1.000000e-02	0.0	1.200000e-01	1.000000e-02	0.0	1.300000e-01	1.000000e-02	0.0	1.400000e-01	1.000000e-02	0.0	1.500000e-01	1.000000e-02	0.0	1.600000e-01	1.000000e-02	0.0	1.700000e-01	1.000000e-02	0.0	1.800000e-01	1.000000e-02	0.0	1.900000e-01	1.000000e-02	0.0	2.000000e-01	1.000000e-02	0.0	2.100000e-01	1.000000e-02	0.0	2.200000e-01	1.000000e-02	0.0	2.300000e-01	1.000000e-02	0.0	2.400000e-01	1.000000e-02	0.0	2.500000e-01	1.000000e-02	0.0	2.600000e-01	1.000000e-02	0.0	2.700000e-01	1.000000e-02	0.0	2.800000e-01	1.000000e-02	0.0	2.900000e-01	1.000000e-02	0.0	3.000000e-01	1.000000e-02	0.0	3.100000e-01	1.000000e-02	0.0	3.200000e-01	1.000000e-02	0.0	3.300000e-01	1.000000e-02	0.0	3.400000e-01	1.000000e-02	0.0	3.500000e-01	1.000000e-02	0.0	3.600000e-01	1.000000e-02	0.0	3.700000e-01	1.000000e-02	0.0	3.800000e-01	1.000000e-02	0.0	3.900000e-01	1.000000e-02	0.0	4.000000e-01	1.000000e-02	0.0	4.100000e-01	1.000000e-02	0.0	4.200000e-01	1.000000e-02	0.0	4.300000e-01	1.000000e-02	0.0	4.400000e-01	1.000000e-02	0.0	4.500000e-01	1.000000e-02	0.0	4.600000e-01	1.000000e-02	0.0	4.700000e-01	1.000000e-02	0.0	4.800000e-01	1.000000e-02	0.0	4.900000e-01	1.000000e-02	0.0	5.000000e-01	1.000000e-02	0.0	5.100000e-01	1.000000e-02	0.0	5.200000e-01	1.000000e-02	0.0	5.300000e-01	1.000000e-02	0.0	5.400000e-01	1.000000e-02	0.0	5.500000e-01	1.000000e-02	0.0	5.600000e-01	1.000000e-02	0.0	5.700000e-01	1.000000e-02	0.0	5.800000e-01	1.000000e-02	0.0	5.900000e-01	1.000000e-02	0.0	6.000000e-01	1.000000e-02	0.0	6.100000e-01	1.000000e-02	0.0	6.200000e-01	1.000000e-02	0.0	6.300000e-01	1.000000e-02	0.0	6.400000e-01	1.000000e-02	0.0	6.500000e-01	1.000000e-02	0.0	6.600000e-01	1.000000e-02	0.0	6.700000e-01	1.000000e-02	0.0	6.800000e-01	1.000000e-02	0.0	6.900000e-01	1.000000e-02	0.0	7.000000e-01	1.000000e-02	0.0	7.100000e-01	1.000000e-02	0.0	7.200000e-01	1.000000e-02	0.0	7.300000e-01	1.000000e-02	0.0	7.400000e-01	1.000000e-02	0.0	7.500000e-01	1.000000e-02	0.0	7.600000e-01	1.000000e-02	0.0	7.700000e-01	1.000000e-02	0.0	7.800000e-01	1.000000e-02	0.0	7.900000e-01	1.000000e-02	0.0	8.000000e-01	1.000000e-02	0.0	8.100000e-01	1.000000e-02	0.0	8.200000e-01	1.000000e-02	0.0	8.300000e-01	1.000000e-02	0.0	8.400000e-01	1.000000e-02	0.0	8.500000e-01	1.000000e-02	0.0	8.600000e-01	1.000000e-02	0.0	8.700000e-01	1.000000e-02	0.0	8.800000e-01	1.000000e-02	0.0	8.900000e-01	1.000000e-02	0.0	9.000000e-01	1.000000e-02	0.0	9.100000e-01	1.000000e-02	0.0	9.200000e-01	1.000000e-02	0.0	9.300000e-01	1.000000e-02	0.0	9.400000e-01	1.000000e-02	0.0	9.500000e-01	1.000000e-02	0.0	9.600000e-01	1.000000e-02	0.0	9.700000e-01	1.000000e-02	0.0	9.800000e-01	1.000000e-02	0.0	9.900000e-01	1.000000e-02	0.0	1.000000e+00	1.000000e-02	0.0	0.000000e+00	2.000000e-02	0.0	1.000000e-02	2.000000e-02	0.0	2.000000e-02	2.000000e-02	0.0	3.000000e-02	2.000000e-02	0.0	4.000000e-02	2.000000e-02	0.0	5.000000e-02	2.000000e-02	0.0	6.000000e-02	2.000000e-02	0.0	7.000000e-02	2.000000e-02	0.0	8.000000e-02	2.000000e-02	0.0	9.000000e-02	2.000000e-02	0.0	1.000000e-01	2.000000e-02	0.0	1.100000e-01	2.000000e-02	0.0	1.200000e-01	2.000000e-02	0.0	1.300000e-01	2.000000e-02	0.0	1.400000e-01	2.000000e-02	0.0	1.500000e-01	2.000000e-02	0.0	1.600000e-01	2.000000e-02	0.0	1.700000e-01	2.000000e-02	0.0	1.800000e-01	2.000000e-02	0.0	1.900000e-01	2.000000e-02	0.0	2.000000e-01	2.000000e-02	0.0	2.100000e-01	2.000000e-02	0.0	2.200000e-01	2.000000e-02	0.0	2.300000e-01	2.000000e-02	0.0	2.400000e-01	2.000000e-02	0.0	2.500000e-01	2.000000e-02	0.0	2.600000e-01	2.000000e-02	0.0	2.700000e-01	2.000000e-02	0.0	2.800000e-01	2.000000e-02	0.0	2.900000e-01	2.000000e-02	0.0	3.000000e-01	2.000000e-02	0.0	3.100000e-01	2.000000e-02	0.0	3.200000e-01	2.000000e-02	0.0	3.300000e-01	2.000000e-02	0.0	3.400000e-01	2.000000e-02	0.0	3.500000e-01	2.000000e-02	0.0	3.600000e-01	2.000000e-02	0.0	3.700000e-01	2.000000e-02	0.0	3.800000e-01	2.000000e-02	0.0	3.900000e-01	2.000000e-02	0.0	4.000000e-01	2.000000e-02	0.0	4.100000e-01	2.000000e-02	0.0	4.200000e-01	2.000000e-02	0.0	4.300000e-01	2.000000e-02	0.0	4.400000e-01	2.000000e-02	0.0	4.500000e-01	2.000000e-02	0.0	4.600000e-01	2.000000e-02	0.0	4.700000e-01	2.000000e-02	0.0	4.800000e-01	2.000000e-02	0.0	4.900000e-01	2.000000e-02	0.0	5.000000e-01	2.000000e-02	0.0	5.100000e-01	2.000000e-02	0.0	5.200000e-01	2.000000e-02	0.0	5.300000e-01	2.000000e-02	0.0	5.400000e-01	2.000000e-02	0.0	5.500000e-01	2.000000e-02	0.0	5.600000e-01	2.000000e-02	0.0	5.700000e-01	2.000000e-02	0.0	5.800000e-01	2.000000e-02	0.0	5.900000e-01	2.000000e-02	0.0	6.000000e-01	2.000000e-02	0.0	6.100000e-01	2.000000e-02	0.0	6.200000e-01	2.000000e-02	0.0	6.300000e-01	2.000000e-02	0.0	6.400000e-01	2.000000e-02	0.0	6.500000e-01	2.000000e-02	0.0	6.600000e-01	2.000000e-02	0.0	6.700000e-01	2.000000e-02	0.0	6.800000e-01	2.000000e-02	0.0	6.900000e-01	2.000000e-02	0.0	7.000000e-01	2.000000e-02	0.0	7.100000e-01	2.000000e-02	0.0	7.200000e-01	2.000000e-02	0.0	7.300000e-01	2.000000e-02	0.0	7.400000e-01	2.000000e-02	0.0	7.500000e-01	2.000000e-02	0.0	7.600000e-01	2.000000e-02	0.0	7.700000e-01	2.000000e-02	0.0	7.800000e-01	2.000000e-02	0.0	7.900000e-01	2.000000e-02	0.0	8.000000e-01	2.000000e-02	0.0	8.100000e-01	2.000000e-02	0.0	8.200000e-01	2.000000e-02	0.0	8.300000e-01	2.000000e-02	0.0	8.400000e-01	2.000000e-02	0.0	8.500000e-01	2.000000e-02	0.0	8.600000e-01	2.000000e-02	0.0	8.700000e-01	2.000000e-02	0.0	8.800000e-01	2.000000e-02	0.0	8.900000e-01	2.000000e-02	0.0	9.000000e-01	2.000000e-02	0.0	9.100000e-01	2.000000e-02	0.0	9.200000e-01	2.000000e-02	0.0	9.300000e-01	2.000000e-02	0.0	9.400000e-01	2.000000e-02	0.0	9.500000e-01	2.000000e-02	0.0	9.600000e-01	2.000000e-02	0.0	9.700000e-01	2.000000e-02	0.0	9.800000e-01	2.000000e-02	0.0	9.900000e-01	2.000000e-02	0.0	1.000000e+00	2.000000e-02	0.0	0.000000e+00	3.000000e-02	0.0	1.000000e-02	3.000000e-02	0.0	2.000000e-02	3.000000e-02	0.0	3.000000e-02	3.000000e-02	0.0	4.000000e-02	3.000000e-02	0.0	5.000000e-02	3.000000e-02	0.0	6.000000e-02	3.000000e-02	0.0	7.000000e-02	3.000000e-02	0.0	8.000000e-02	3.000000e-02	0.0	9.000000e-02	3.000000e-02	0.0	1.000000e-01	3.000000e-02	0.0	1.100000e-01	3.000000e-02	0.0	1.200000e-01	3.000000e-02	0.0	1.300000e-01	3.000000e-02	0.0	1.400000e-01	3.000000e-02	0.0	1.500000e-01	3.000000e-02	0.0	1.600000e-01	3.000000e-02	0.0	1.700000e-01	3.000000e-02	0.0	1.800000e-01	3.000000e-02	0.0	1.900000e-01	3.000000e-02	0.0	2.000000e-01	3.000000e-02	0.0	2.100000e-01	3.000000e-02	0.0	2.200000e-01	3.000000e-02	0.0	2.300000e-01	3.000000e-02	0.0	2.400000e-01	3.000000e-02	0.0	2.500000e-01	3.000000e-02	0.0	2.600000e-01	3.000000
[...]
POINT_DATA 10201

SCALARS Height double 1
LOOKUP_TABLE default
9.994429e-01	9.994597e-01	9.994676e-01	9.994689e-01	9.994690e-01	9.994676e-01	9.994641e-01	9.994574e-01	9.994520e-01	9.994472e-01	9.994443e-01	9.994446e-01	9.994457e-01	9.994465e-01	9.994465e-01	9.994453e-01	9.994442e-01	9.994510e-01	9.994563e-01	9.994602e-01	9.994605e-01	9.994529e-01	9.994415e-01	9.994310e-01	9.994209e-01	9.994198e-01	9.994201e-01	9.994182e-01	9.994144e-01	9.994092e-01	9.994034e-01	9.993990e-01	9.993994e-01	9.994145e-01	9.994750e-01	9.996706e-01	1.000231e+00	1.001632e+00	1.004447e+00	1.008601e+00	1.012903e+00	1.015836e+00	1.017053e+00	1.017242e+00	1.016950e+00	1.015938e+00	1.013889e+00	1.010774e+00	1.007022e+00	1.003122e+00	9.994666e-01	9.962993e-01	9.937879e-01	9.920377e-01	9.910310e-01	9.906099e-01	9.905338e-01	9.905980e-01	9.908647e-01	9.914345e-01	9.923304e-01	9.933971e-01	9.944123e-01	9.952436e-01	9.958684e-01	9.963219e-01	9.966543e-01	9.968999e-01	9.970781e-01	9.971969e-01	9.972624e-01	9.972866e-01	9.972867e-01	9.972833e-01	9.973109e-01	9.974536e-01	9.979268e-01	9.991920e-01	1.001871e+00	1.006034e+00	1.010586e+00	1.013860e+00	1.015306e+00	1.015552e+00	1.015289e+00	1.014350e+00	1.012441e+00	1.009465e+00	1.005778e+00	1.001840e+00	9.980501e-01	9.946800e-01	9.919111e-01	9.898462e-01	9.884553e-01	9.875816e-01	9.869758e-01	9.863483e-01	9.856957e-01	9.851469e-01	9.850427e-01	9.994432e-01	9.994662e-01	9.994548e-01	9.994564e-01	9.994574e-01	9.994578e-01	9.994565e-01	9.994550e-01	9.994547e-01	9.994530e-01	9.994511e-01	9.994485e-01	9.994458e-01	9.994437e-01	9.994426e-01	9.994423e-01	9.994413e-01	9.994420e-01	9.994395e-01	9.994363e-01	9.994333e-01	9.994286e-01	9.994261e-01	9.994217e-01	9.994145e-01	9.994123e-01	9.994100e-01	9.994084e-01	9.994059e-01	9.994020e-01	9.993974e-01	9.993935e-01	9.993920e-01	9.993978e-01	9.994284e-01	9.995563e-01	1.000020e+00	1.001388e+00	1.004360e+00	1.008773e+00	1.013091e+00	1.015897e+00	1.017037e+00	1.017233e+00	1.017083e+00	1.016120e+00	1.013960e+00	1.010763e+00	1.006953e+00	1.003030e+00	9.993570e-01	9.961746e-01	9.936630e-01	9.919376e-01	9.909770e-01	9.905973e-01	9.905203e-01	9.905453e-01	9.907844e-01	9.913881e-01	9.923165e-01	9.933879e-01	9.943961e-01	9.952200e-01	9.958410e-01	9.962950e-01	9.966292e-01	9.968769e-01	9.970560e-01	9.971743e-01	9.972390e-01	9.972629e-01	9.972632e-01	9.972562e-01	9.972617e-01	9.973432e-01	9.977191e-01	9.989314e-01	1.001743e+00	1.006185e+00	1.010784e+00	1.013935e+00	1.015294e+00	1.015534e+00	1.015386e+00	1.014537e+00	1.012525e+00	1.009461e+00	1.005714e+00	1.001749e+00	9.979395e-01	9.945504e-01	9.917787e-01	9.897364e-01	9.883937e-01	9.875606e-01	9.869540e-01	9.863037e-01	9.856292e-01	9.850969e-01	9.849717e-01	9.994403e-01	9.994655e-01	9.994563e-01	9.994582e-01	9.994586e-01	9.994580e-01	9.994568e-01	9.994544e-01	9.994517e-01	9.994499e-01	9.994479e-01	9.994458e-01	9.994441e-01	9.994430e-01	9.994416e-01	9.994404e-01	9.994371e-01	9.994353e-01	9.994327e-01	9.994313e-01	9.994292e-01	9.994237e-01	9.994176e-01	9.994152e-01	9.994109e-01	9.994103e-01	9.994092e-01	9.994073e-01	9.994037e-01	9.993989e-01	9.993941e-01	9.993902e-01	9.993884e-01	9.993929e-01	9.994203e-01	9.995381e-01	9.999899e-01	1.001387e+00	1.004457e+00	1.008906e+00	1.013116e+00	1.015791e+00	1.016905e+00	1.017113e+00	1.017015e+00	1.016146e+00	1.013922e+00	1.010673e+00	1.006914e+00	1.003051e+00	9.994073e-01	9.962398e-01	9.937474e-01	9.920320e-01	9.910617e-01	9.906569e-01	9.905647e-01	9.905772e-01	9.907829e-01	9.913943e-01	9.923365e-01	9.933921e-01	9.943804e-01	9.951965e-01	9.958194e-01	9.962789e-01	9.966168e-01	9.968659e-01	9.970446e-01	9.971621e-01	9.972273e-01	9.972525e-01	9.972537e-01	9.972463e-01	9.972496e-01	9.973232e-01	9.976852e-01	9.989224e-01	1.001840e+00	1.006337e+00	1.010832e+00	1.013836e+00	1.015144e+00	1.015406e+00	1.015293e+00	1.014553e+00	1.012502e+00	1.009368e+00	1.005660e+00	1.001760e+00	9.979863e-01	9.946145e-01	9.918586e-01	9.898199e-01	9.884595e-01	9.876052e-01	9.869829e-01	9.863258e-01	9.856335e-01	9.851108e-01	9.849951e-01	9.994411e-01	9.994699e-01	9.994578e-01	9.994577e-01	9.994583e-01	9.994581e-01	9.994577e-01	9.994557e-01	9.994534e-01	9.994515e-01	9.994491e-01	9.994470e-01	9.994458e-01	9.994456e-01	9.994454e-01	9.994447e-01	9.994414e-01	9.994413e-01	9.994371e-01	9.994343e-01	9.994318e-01	9.994268e-01	9.994222e-01	9.994204e-01	9.994157e-01	9.994152e-01	9.994136e-01	9.994105e-01	9.994057e-01	9.994000e-01	9.993945e-01	9.993897e-01	9.993869e-01	9.993896e-01	9.994119e-01	9.995178e-01	9.999506e-01	1.001350e+00	1.004474e+00	1.008961e+00	1.013132e+00	1.015731e+00	1.016808e+00	1.017025e+00	1.016946e+00	1.016190e+00	1.014004e+00	1.010686e+00	1.006923e+00	1.003099e+00	9.994794e-01	9.963183e-01	9.938229e-01	9.921000e-01	9.911190e-01	9.907033e-01	9.906021e-01	9.906079e-01	9.907781e-01	9.913633e-01	9.923164e-01	9.933762e-01	9.943566e-01	9.951711e-01	9.957991e-01	9.962654e-01	9.966083e-01	9.968601e-01	9.970397e-01	9.971574e-01	9.972222e-01	9.972472e-01	9.972483e-01	9.972404e-01	9.972410e-01	9.973052e-01	9.976514e-01	9.988917e-01	1.001861e+00	1.006395e+00	1.010850e+00	1.013773e+00	1.015040e+00	1.015304e+00	1.015207e+00	1.014573e+00	1.012584e+00	1.009385e+00	1.005660e+00	1.001800e+00	9.980536e-01	9.946869e-01	9.919241e-01	9.898770e-01	9.885066e-01	9.876360e-01	9.869987e-01	9.863342e-01	9.856200e-01	9.850666e-01	9.849424e-01	9.994425e-01	9.994735e-01	9.994601e-01	9.994596e-01	9.994585e-01	9.994581e-01	9.994575e-01	9.994560e-01	9.994534e-01	9.994505e-01	9.994477e-01	9.994453e-01	9.994437e-01	9.994435e-01	9.994445e-01	9.994450e-01	9.994434e-01	9.994443e-01	9.994412e-01	9.994383e-01	9.994356e-01	9.994306e-01	9.994258e-01	9.994229e-01	9.994174e-01	9.994155e-01	9.994135e-01	9.994096e-01	9.994044e-01	9.993986e-01	9.993925e-01	9.993870e-01	9.993833e-01	9.993849e-01	9.994048e-01	9.995032e-01	9.999226e-01	1.001317e+00	1.004463e+00	1.008959e+00	1.013089e+00	1.015640e+00	1.016691e+00	1.016907e+00	1.016842e+00	1.016180e+00	1.014109e+00	1.010776e+00	1.006977e+00	1.003179e+00	9.995913e-01	9.964406e-01	9.939381e-01	9.922011e-01	9.912011e-01	9.907663e-01	9.906511e-01	9.906505e-01	9.907898e-01	9.913273e-01	9.922721e-01	9.933444e-01	9.943260e-01	9.951405e-01	9.957741e-01	9.962484e-01	9.965981e-01	9.968538e-01	9.970353e-01	9.971534e-01	9.972181e-01	9.972430e-01	9.972441e-01	9.972363e-01	9.972361e-01	9.972968e-01	9.976356e-01	9.988751e-01	1.001865e+00	1.006407e+00	1.010817e+00	1.013680e+00	1.014915e+00	1.015180e+00	1.015092e+00	1.014531e+00	1.012667e+00	1.009477e+00	1.005711e+00	1.001865e+00	9.981522e-01	9.947999e-01	9.920289e-01	9.899640e-01	9.885725e-01	9.876744e-01	9.870160e-01	9.863437e-01	9.856086e-01	9.850067e-01	9.848537e-01	9.994421e-01	9.994705e-01	9.994604e-01	9.994604e-01	9.994592e-01	9.994579e-01	9.994560e-01	9.994533e-01	9.994507e-01	9.994482e-01	9.994459e-01	9.994439e-01	9.994421e-01	9.994417e-01	9.994427e-01	9.994440e-01	9.994442e-01	9.994455e-01	9.994438e-01	9.994411e-01	9.994385e-01	9.994334e-01	9.994282e-01	9.994236e-01	9.994179e-01	9.994155e-01	9.994131e-01	9.994096e-01	9.994049e-01	9.993989e-01	9.993920e-01	9.993855e-01	9.993811e-01	9.993818e-01	9.994000e-01	9.994930e-01	9.999019e-01	1.001287e+00	1.004434e+00	1.008924e+00	1.013012e+00	1.015521e+00	1.016557e+00	1.016776e+00	1.016718e+00	1.016131e+00	1.014194e+00	1.010912e+00	1.007082e+00	1.003279e+00	9.997260e-01	9.965944e-01	9.940838e-01	9.923248e-01	9.912966e-01	9.908353e-01	9.907043e-01	9.906983e-01	9.908076e-01	9.912852e-01	9.922010e-01	9.932853e-01	9.942807e-01	9.950984e-01	9.957371e-01	9.962201e-01	9.965779e-01	9.968393e-01	9.970239e-01	9.971431e-01	9.972082e-01	9.972335e-01	9.972351e-01	9.972277e-01	9.972277e-01	9.972882e-01	9.976253e-01	9.988627e-01	1.001852e+00	1.006381e+00	1.010743e+00	1.013556e+00	1.014772e+00	1.015039e+00	1.014958e+00	1.014455e+00	1.012723e+00	1.009606e+00	1.005816e+00	1.001953e+00	9.982698e-01	9.949392e-01	9.921627e-01	9.900729e-01	9.886463e-01	9.877132e-01	9.870285e-01	9.863464e-01	9.855856e-01	9.849267e-01	9.847328e-01	9.994395e-01	9.994642e-01	9.994570e-01	9.994581e-01	9.994565e-01	9.994548e-01	9.994524e-01	9.994496e-01	9.994472e-01	9.994457e-01	9.994443e-01	9.994430e-01	9.994417e-01	9.994409e-01	9.994411e-01	9.994417e-01	9.994415e-01	9.994423e-01	9.994410e-01	9.994390e-01	9.994360e-01	9.994308e-01	9.994250e-01	9.994197e-01	9.994146e-01	9.994130e-01	9.994113e-01	9.994088e-01	9.994044e-01	9.993980e-01	9.993905e-01	9.993835e-01	9.993786e-01	9.993794e-01	9.993963e-01	9.994861e-01	9.998874e-01	1.001260e+00	1.004388e+00	1.008850e+00	1.012900e+00	1.015378e+00	1.016402e+00	1.016626e+00	1.016579e+00	1.016054e+00	1.014247e+00	1.011057e+00	1.007221e+00	1.003404e+00	9.998758e-01	9.967687e-01	9.942546e-01	9.924688e-01	9.914065e-01	9.909153e-01	9.907664e-01	9.907531e-01	9.908319e-01	9.912418e-01	9.921086e-01	9.931956e-01	9.942123e-01	9.950400e-01	9.956846e-01	9.961748e-01	9.965410e-01	9.968095e-01	9.969984e-01	9.971202e-01	9.971870e-01	9.972138e-01	9.972166e-01	9.972101e-01	9.972112e-01	9.972747e-01	9.976167e-01	9.988536e-01	1.001823e+00	1.006312e+00	1.010628e+00	1.013405e+00	1.014608e+00	1.014876e+00	1.014801e+00	1.014352e+00	1.012748e+00	1.009736e+00	1.005952e+00	1.002071e+00	9.984004e-01	9.950903e-01	9.923127e-01	9.901970e-01	9.887304e-01	9.877551e-01	9.870390e-01	9.863425e-01	9.855490e-01	9.848279e-01	9.845860e-01	9.994369e-01	9.994551e-01	9.994512e-01	9.994522e-01	9.994508e-01	9.994492e-01	9.994475e-01	9.994453e-01	9.994445e-01	9.994437e-01	9.994433e-01	9.994429e-01	9.994422e-01	9.994415e-01	9.994411e-01	9.994405e-01	9.994398e-01	9.994365e-01	9.994370e-01	9.994340e-01	9.994307e-01	9.994252e-01	9.994201e-01	9.994144e-01	9.994118e-01	9.994109e-01	9.994100e-01	9.994074e-01	9.994024e-01	9.993955e-01	9.993878e-01	9.993811e-01	9.993768e-01	9.993778e-01	9.993942e-01	9.994811e-01	9.998774e-01	1.001237e+00	1.004332e+00	1.008740e+00	1.012751e+00	1.015211e+00	1.016232e+00	1.016461e+00	1.016422e+00	1.015957e+00	1.014280e+00	1.011206e+00	1.007401e+00	1.003569e+00	1.000044e+00	9.969597e-01	9.944490e-01	9.926360e-01	9.915341e-01	9.910086e-01	9.908398e-01	9.908162e-01	9.908670e-01	9.912049e-01	9.920054e-01	9.930802e-01	9.941167e-01	9.949639e-01	9.956202e-01	9.961187e-01	9.964932e-01	9.967687e-01	9.969626e-01	9.970878e-01	9.971574e-01	9.971861e-01	9.971905e-01	9.971854e-01	9.971892e-01	9.972592e-01	9.976123e-01	9.988508e-01	1.001783e+00	1.006203e+00	1.010469e+00	1.013227e+00	1.014428e+00	1.014700e+00	1.014629e+00	1.014227e+00	1.012748e+00	1.009862e+00	1.006120e+00	1.002225e+00	9.985492e-01	9.952542e-01	9.924776e-01	9.903357e-01	9.888269e-01	9.878061e-01	9.870523e-01	9.863328e-01	9.855010e-01	9.847123e-01	9.844173e-01	9.994356e-01	9.994481e-01	9.994467e-01	9.994475e-01	9.994464e-01	9.994452e-01	9.994445e-01	9.994439e-01	9.994436e-01	9.994436e-01	9.994431e-01	9.994431e-01	9.994429e-01	9.994423e-01	9.994414e-01	9.994401e-01	9.994383e-01	9.994368e-01	9.994323e-01	9.994314e-01	9.994278e-01	9.994228e-01	9.994179e-01	9.994142e-01	9.994128e-01	9.994113e-01	9.994097e-01	9.994062e-01	9.994006e-01	9.993934e-01	9.993863e-01	9.993808e-01	9.993778e-01	9.993791e-01	9.993938e-01	9.994790e-01	9.998753e-01	1.001224e+00	1.004268e+00	1.008599e+00	1.012561e+00	1.015016e+00	1.016048e+00	1.016286e+00	1.016255e+00	1.015843e+00	1.014301e+00	1.011365e+00	1.007617e+00	1.003781e+00	1.000250e+00	9.971792e-01	9.946721e-01	9.928330e-01	9.916855e-01	9.911169e-01	9.909203e-01	9.908889e-01	9.909168e-01	9.911836e-01	9.919025e-01	9.929483e-01	9.940010e-01	9.948757e-01	9.955514e-01	9.960630e-01	9.964477e-01	9.967303e-01	9.969289e-01	9.970573e-01	9.971290e-01	9.971592e-01	9.971652e-01	9.971625e-01	9.971704e-01	9.972496e-01	9.976181e-01	9.988598e-01	1.001740e+00	1.006065e+00	1.010267e+00	1.013017e+00	1.014231e+00	1.014513e+00	1.014447e+00	1.014087e+00	1.012735e+00	1.009991e+00	1.006318e+00	1.002422e+00	9.987361e-01	9.954467e-01	9.926684e-01	9.904969e-01	9.889409e-01	9.878720e-01	9.870709e-01	9.863187e-01	9.854442e-01	9.845863e-01	9.842373e-01	9.994376e-01	9.994457e-01	9.994452e-01	9.994459e-01	9.994452e-01	9.994444e-01	9.994439e-01	9.994437e-01	9.994438e-01	9.994441e-01	9.994445e-01	9.994441e-01	9.994434e-01	9.994427e-01	9.994415e-01	9.994396e-01	9.994372e-01	9.994360e-01	9.994341e-01	9.994309e-01	9.994278e-01	9.994239e-01	9.994208e-01	9.994177e-01	9.994139e-01	9.994126e-01	9.994103e-01	9.994062e-01	9.994000e-01	9.993931e-01	9.993870e-01	9.993826e-01	9.993801e-01	9.993810e-01	9.993950e-01	9.994802e-01	9.998795e-01	1.001219e+00	1.004200e+00	1.008431e+00	1.012335e+00	1.014791e+00	1.015847e+00	1.016101e+00	1.016079e+00	1.015719e+00	1.014317e+00	1.011534e+00	1.007871e+00	1.004051e+00	1.000514e+00	9.974425e-01	9.949319e-01	9.930649e-01	9.918669e-01	9.912457e-01	9.910119e-01	9.909653e-01	9.909795e-01	9.911802e-01	9.918072e-01	9.928089e-01	9.938728e-01	9.947782e-01	9.954804e-01	9.960104e-01	9.964075e-01	9.966984e-01	9.969014e-01	9.970327e-01	9.971056e-01	9.971371e-01	9.971451e-01	9.971451e-01	9.971583e-01	9.972480e-01	9.976347e-01	9.988805e-01	1.001699e+00	1.005905e+00	1.010028e+00	1.012771e+00	1.014011e+00	1.014313e+00	1.014256e+00	1.013938e+00	1.012712e+00	1.010126e+00	1.006549e+00	1.002675e+00	9.989784e-01	9.956825e-01	9.928957e-01	9.906914e-01	9.890797e-01	9.879517e-01	9.870962e-01	9.862967e-01	9.853789e-01	9.844598e-01	9.840636e-01	9.994390e-01	9.994466e-01	9.994444e-01	9.994459e-01	9.994452e-01	9.994444e-01	9.994439e-01	9.994438e-01	9.994437e-01	9.994442e-01	9.994442e-01	9.994456e-01	9.994452e-01	9.994437e-01	9.994420e-01	9.994398e-01	9.994371e-01	9.994356e-01	9.994339e-01	9.994320e-01	9.994292e-01	9.994259e-01	9.994229e-01	9.994193e-01	9.994167e-01	9.994148e-01	9.994120e-01	9.994073e-01	9.994011e-01	9.993944e-01	9.993889e-01	9.993840e-01	9.993817e-01	9.993829e-01	9.993969e-01	9.994839e-01	9.998897e-01	1.001221e+00	1.004127e+00	1.008239e+00	1.012077e+00	1.014535e+00	1.015622e+00	1.015900e+00	1.015889e+00	1.015584e+00	1.014323e+00	1.011708e+00	1.008153e+00	1.004368e+00	1.000832e+00	9.977543e-01	9.952310e-01	9.933303e-01	9.920765e-01	9.913954e-01	9.911178e-01	9.910496e-01	9.910510e-01	9.911929e-01	9.917203e-01	9.926604e-01	9.937294e-01	9.946685e-01	9.954025e-01	9.959550e-01	9.963666e-01	9.966666e-01	9.968754e-01	9.970091e-01	9.970837e-01	9.971170e-01	9.971271e-01	9.971302e-01	9.971490e-01	9.972512e-01	9.976587e-01	9.989090e-01	1.001657e+00	1.005727e+00	1.009755e+00	1.012490e+00	1.013763e+00	1.014093e+00	1.014048e+00	1.013772e+00	1.012678e+00	1.010263e+00	1.006804e+00	1.002974e+00	9.992752e-01	9.959657e-01	9.931612e-01	9.909202e-01	9.892473e-01	9.880466e-01	9.871247e-01	9.862648e-01	9.853028e-01	9.843413e-01	9.839117e-01	9.994390e-01	9.994481e-01	9.994435e-01	9.994454e-01	9.994447e-01	9.994438e-01	9.994433e-01	9.994431e-01	9.994431e-01	9.994434e-01	9.994450e-01	9.994449e-01	9.994458e-01	9.994451e-01	9.994426e-01	9.994398e-01	9.994365e-01	9.994345e-01	9.994322e-01	9.994297e-01	9.994271e-01	9.994243e-01	9.994225e-01	9.994200e-01	9.994178e-01	9.994159e-01	9.994129e-01	9.994082e-01	9.994022e-01	9.993958e-01	9.993889e-01	9.993836e-01	9.993814e-01	9.993829e-01	9.993981e-01	9.994902e-01	9.999075e-01	1.001230e+00	1.004050e+00	1.008028e+00	1.011789e+00	1.014249e+00	1.015370e+00	1.015676e+00	1.015679e+00	1.015431e+00	1.014312e+00	1.011879e+00	1.008450e+00	1.004716e+00	1.001188e+00	9.981041e-01	9.955636e-01	9.936247e-01	9.923100e-01	9.915630e-01	9.912361e-01	9.911428e-01	9.911330e-01	9.912215e-01	9.916429e-01	9.925010e-01	9.935628e-01	9.945368e-01	9.953078e-01	9.958877e-01	9.963166e-01	9.966271e-01	9.968419e-01	9.969793e-01	9.970569e-01	9.970931e-01	9.971062e-01	9.971128e-01	9.971381e-01	9.972553e-01	9.976869e-01	9.989416e-01	1.001612e+00	1.005533e+00	1.009454e+00	1.012176e+00	1.013485e+00	1.013849e+00	1.013819e+00	1.013586e+00	1.012621e+00	1.010388e+00	1.007070e+00	1.003301e+00	9.996108e-01	9.962864e-01	9.934570e-01	9.911742e-01	9.894358e-01	9.881556e-01	9.871514e-01	9.862191e-01	9.852144e-01	9.842355e-01	9.837914e-01	9.994364e-01	9.994480e-01	9.994414e-01	9.994437e-01	9.994430e-01	9.994422e-01	9.994415e-01	9.994413e-01	9.994413e-01	9.994416e-01	9.994435e-01	9.994455e-01	9.994450e-01	9.994447e-01	9.994431e-01	9.994397e-01	9.994361e-01	9.994334e-01	9.994306e-01	9.994277e-01	9.994248e-01	9.994228e-01	9.994215e-01	9.994195e-01	9.994176e-01	9.994158e-01	9.994128e-01	9.994084e-01	9.994016e-01	9.993937e-01	9.993865e-01	9.993812e-01	9.993788e-01	9.993803e-01	9.993975e-01	9.994987e-01	9.999339e-01	1.001246e+00	1.003971e+00	1.007803e+00	1.011473e+00	1.013934e+00	1.015094e+00	1.015430e+00	1.015448e+00	1.015251e+00	1.014277e+00	1.012038e+00	1.008753e+00	1.005084e+00	1.001570e+00	9.984808e-01	9.959223e-01	9.939446e-01	9.925671e-01	9.917486e-01	9.913646e-01	9.912407e-01	9.912202e-01	9.912654e-01	9.915788e-01	9.923345e-01	9.933693e-01	9.943745e-01	9.951877e-01	9.958014e-01	9.962518e-01	9.965755e-01	9.967985e-01	9.969407e-01	9.970218e-01	9.970612e-01	9.970777e-01	9.970886e-01	9.971229e-01	9.972584e-01	9.977171e-01	9.989763e-01	1.001565e+00	1.005328e+00	1.009129e+00	1.011832e+00	1.013179e+00	1.013581e+00	1.013567e+00	1.013374e+00	1.012538e+00	1.010493e+00	1.007331e+00	1.003641e+00	9.999689e-01	9.966325e-01	9.937741e-01	9.914440e-01	9.896350e-01	9.882668e-01	9.871717e-01	9.861578e-01	9.851128e-01	9.841444e-01	9.837102e-01	9.994321e-01	9.994461e-01	9.994385e-01	9.994414e-01	9.994408e-01	9.994402e-01	9.994394e-01	9.994391e-01	9.994391e-01	9.994395e-01	9.994411e-01	9.994440e-01	9.994446e-01	9.994434e-01	9.994419e-01	9.994390e-01	9.994353e-01	9.994321e-01	9.994288e-01	9.994253e-01	9.994221e-01	9.994204e-01	9.994195e-01	9.994178e-01	9.994160e-01	9.994139e-01	9.994104e-01	9.994050e-01	9.993987e-01	9.993904e-01	9.993828e-01	9.993779e-01	9.993748e-01	9.993759e-01	9.993955e-01	9.995102e-01	9.999671e-01	1.001266e+00	1.003892e+00	1.007567e+00	1.011135e+00	1.013591e+00	1.014793e+00	1.015165e+00	1.015197e+00	1.015046e+00	1.014217e+00	1.012181e+00	1.009057e+00	1.005468e+00	1.001977e+00	9.988836e-01	9.963062e-01	9.942903e-01	9.928508e-01	9.919570e-01	9.915067e-01	9.913420e-01	9.913078e-01	9.913230e-01	9.915343e-01	9.921689e-01	9.931541e-01	9.941817e-01	9.950411e-01	9.956937e-01	9.961707e-01	9.965117e-01	9.967450e-01	9.968933e-01	9.969783e-01	9.970213e-01	9.970416e-01	9.970584e-01	9.971039e-01	9.972608e-01	9.977495e-01	9.990127e-01	1.001517e+00	1.005114e+00	1.008785e+00	1.011463e+00	1.012849e+00	1.013294e+00	1.013297e+00	1.013135e+00	1.012424e+00	1.010575e+00	1.007583e+00	1.003986e+00	1.000343e+00	9.969992e-01	9.941103e-01	9.917278e-01	9.898418e-01	9.883771e-01	9.871816e-01	9.860841e-01	9.849978e-01	9.840731e-01	9.836776e-01	9.994275e-01	9.994426e-01	9.994360e-01	9.994392e-01	9.994389e-01	9.994384e-01	9.994378e-01	9.994376e-01	9.994376e-01	9.994377e-01	9.994390e-01	9.994412e-01	9.994432e-01	9.994423e-01	9.994397e-01	9.994381e-01	9.994345e-01	9.994310e-01	9.994271e-01	9.994228e-01	9.994191e-01	9.994176e-01	9.994170e-01	9.994156e-01	9.994136e-01	9.994111e-01	9.994071e-01	9.994023e-01	9.993957e-01	9.993866e-01	9.993790e-01	9.993738e-01	9.993713e-01	9.993719e-01	9.993943e-01	9.995264e-01	1.000005e+00	1.001289e+00	1.003815e+00	1.007326e+00	1.010777e+00	1.013222e+00	1.014469e+00	1.014881e+00	1.014927e+00	1.014819e+00	1.014133e+00	1.012304e+00	1.009358e+00	1.005867e+00	1.002412e+00	9.993191e-01	9.967220e-01	9.946665e-01	9.931651e-01	9.921936e-01	9.916687e-01	9.914521e-01	9.913955e-01	9.913922e-01	9.915157e-01	9.920163e-01	9.929268e-01	9.939664e-01	9.948731e-01	9.955689e-01	9.960777e-01	9.964390e-01	9.966842e-01	9.968398e-01	9.969293e-01	9.969760e-01	9.970008e-01	9.970250e-01	9.970837e-01	9.972642e-01	9.977840e-01	9.990510e-01	1.001469e+00	1.004897e+00	1.008428e+00	1.011072e+00	1.012495e+00	1.012986e+00	1.013008e+00	1.012871e+00	1.012278e+00	1.010632e+00	1.007824e+00	1.004337e+00	1.000736e+00	9.973898e-01	9.944706e-01	9.920319e-01	9.900621e-01	9.884913e-01	9.871846e-01	9.859987e-01	9.848823e-01	9.840287e-01	9.837029e-01	9.994240e-01	9.994378e-01	9.994341e-01	9.994375e-01	9.994376e-01	9.994377e-01	9.994374e-01	9.994374e-01	9.994374e-01	9.994371e-01	9.994377e-01	9.994390e-01	9.994405e-01	9.994411e-01	9.994391e-01	9.994359e-01	9.994339e-01	9.994298e-01	9.994253