# vtk DataFile Version 3.0
vtk output
ASCII
DATASET STRUCTURED_GRID
DIMENSIONS 101 101 1
POINTS 10201 double
0.000000e+00	0.000000e+00	0.0	1.000000e-02	0.000000e+00	0.0	2.000000e-02	0.000000e+00	0.0	3.000000e-02	0.000000e+00	0.0	4.000000e-02	0.000000e+00	0.0	5.000000e-02	0.000000e+00	0.0	6.000000e-02	0.000000e+00	0.0	7.000000e-02	0.000000e+00	0.0	8.000000e-02	0.000000e+00	0.0	9.000000e-02	0.000000e+00	0.0	1.000000e-01	0.000000e+00	0.0	1.100000e-01	0.000000e+00	0.0	1.200000e-01	0.000000e+00	0.0	1.300000e-01	0.000000e+00	0.0	1.400000e-01	0.000000e+00	0.0	1.500000e-01	0.000000e+00	0.0	1.600000e-01	0.000000e+00	0.0	1.700000e-01	0.000000e+00	0.0	1.800000e-01	0.000000e+00	0.0	1.900000e-01	0.000000e+00	0.0	2.000000e-01	0.000000e+00	0.0	2.100000e-01	0.000000e+00	0.0	2.200000e-01	0.000000e+00	0.0	2.300000e-01	0.000000e+00	0.0	2.400000e-01	0.000000e+00	0.0	2.500000e-01	0.000000e+00	0.0	2.600000e-01	0.000000e+00	0.0	2.700000e-01	0.000000e+00	0.0	2.800000e-01	0.000000e+00	0.0	2.900000e-01	0.000000e+00	0.0	3.000000e-01	0.000000e+00	0.0	3.100000e-01	0.000000e+00	0.0	3.200000e-01	0.000000e+00	0.0	3.300000e-01	0.000000e+00	0.0	3.400000e-01	0.000000e+00	0.0	3.500000e-01	0.000000e+00	0.0	3.600000e-01	0.000000e+00	0.0	3.700000e-01	0.000000e+00	0.0	3.800000e-01	0.000000e+00	0.0	3.900000e-01	0.000000e+00	0.0	4.000000e-01	0.000000e+00	0.0	4.100000e-01	0.000000e+00	0.0	4.200000e-01	0.000000e+00	0.0	4.300000e-01	0.000000e+00	0.0	4.400000e-01	0.000000e+00	0.0	4.500000e-01	0.000000e+00	0.0	4.600000e-01	0.000000e+00	0.0	4.700000e-01	0.000000e+00	0.0	4.800000e-01	0.000000e+00	0.0	4.900000e-01	0.000000e+00	0.0	5.000000e-01	0.000000e+00	0.0	5.100000e-01	0.000000e+00	0.0	5.200000e-01	0.000000e+00	0.0	5.300000e-01	0.000000e+00	0.0	5.400000e-01	0.000000e+00	0.0	5.500000e-01	0.000000e+00	0.0	5.600000e-01	0.000000e+00	0.0	5.700000e-01	0.000000e+00	0.0	5.800000e-01	0.000000e+00	0.0	5.900000e-01	0.000000e+00	0.0	6.000000e-01	0.000000e+00	0.0	6.100000e-01	0.000000e+00	0.0	6.200000e-01	0.000000e+00	0.0	6.300000e-01	0.000000e+00	0.0	6.400000e-01	0.000000e+00	0.0	6.500000e-01	0.000000e+00	0.0	6.600000e-01	0.000000e+00	0.0	6.700000e-01	0.000000e+00	0.0	6.800000e-01	0.000000e+00	0.0	6.900000e-01	0.000000e+00	0.0	7.000000e-01	0.000000e+00	0.0	7.100000e-01	0.000000e+00	0.0	7.200000e-01	0.000000e+00	0.0	7.300000e-01	0.000000e+00	0.0	7.400000e-01	0.000000e+00	0.0	7.500000e-01	0.000000e+00	0.0	7.600000e-01	0.000000e+00	0.0	7.700000e-01	0.000000e+00	0.0	7.800000e-01	0.000000e+00	0.0	7.900000e-01	0.000000e+00	0.0	8.000000e-01	0.000000e+00	0.0	8.100000e-01	0.000000e+00	0.0	8.200000e-01	0.000000e+00	0.0	8.300000e-01	0.000000e+00	0.0	8.400000e-01	0.000000e+00	0.0	8.500000e-01	0.000000e+00	0.0	8.600000e-01	0.000000e+00	0.0	8.700000e-01	0.000000e+00	0.0	8.800000e-01	0.000000e+00	0.0	8.900000e-01	0.000000e+00	0.0	9.000000e-01	0.000000e+00	0.0	9.100000e-01	0.000000e+00	0.0	9.200000e-01	0.000000e+00	0.0	9.300000e-01	0.000000e+00	0.0	9.400000e-01	0.000000e+00	0.0	9.500000e-01	0.000000e+00	0.0	9.600000e-01	0.000000e+00	0.0	9.700000e-01	0.000000e+00	0.0	9.800000e-01	0.000000e+00	0.0	9.900000e-01	0.000000e+00	0.0	1.000000e+00	0.000000e+00	0.0	0.000000e+00	1.000000e-02	0.0	1.000000e-02	1.000000e-02	0.0	2.000000e-02	1.000000e-02	0.0	3.000000e-02	1.000000e-02	0.0	4.000000e-02	1.000000e-02	0.0	5.000000e-02	1.000000e-02	0.0	6.000000e-02	1.000000e-02	0.0	7.000000e-02	1.000000e-02	0.0	8.000000e-02	1.000000e-02	0.0	9.000000e-02	1.000000e-02	0.0	1.000000e-01	1.000000e-02	0.0	1.100000e-01	1.000000e-02	0.0	1.200000e-01	1.000000e-02	0.0	1.300000e-01	1.000000e-02	0.0	1.400000e-01	1.000000e-02	0.0	1.500000e-01	1.000000e-02	0.0	1.600000e-01	1.000000e-02	0.0	1.700000e-01	1.000000e-02	0.0	1.800000e-01	1.000000e-02	0.0	1.900000e-01	1.000000e-02	0.0	2.000000e-01	1.000000e-02	0.0	2.100000e-01	1.000000e-02	0.0	2.200000e-01	1.000000e-02	0.0	2.300000e-01	1.000000e-02	0.0	2.400000e-01	1.000000e-02	0.0	2.500000e-01	1.000000e-02	0.0	2.600000e-01	1.000000e-02	0.0	2.700000e-01	1.000000e-02	0.0	2.800000e-01	1.000000e-02	0.0	2.900000e-01	1.000000e-02	0.0	3.000000e-01	1.000000e-02	0.0	3.100000e-01	1.000000e-02	0.0	3.200000e-01	1.000000e-02	0.0	3.300000e-01	1.000000e-02	0.0	3.400000e-01	1.000000e-02	0.0	3.500000e-01	1.000000e-02	0.0	3.600000e-01	1.000000e-02	0.0	3.700000e-01	1.000000e-02	0.0	3.800000e-01	1.000000e-02	0.0	3.900000e-01	1.000000e-02	0.0	4.000000e-01	1.000000e-02	0.0	4.100000e-01	1.000000e-02	0.0	4.200000e-01	1.000000e-02	0.0	4.300000e-01	1.000000e-02	0.0	4.400000e-01	1.000000e-02	0.0	4.500000e-01	1.000000e-02	0.0	4.600000e-01	1.000000e-02	0.0	4.700000e-01	1.000000e-02	0.0	4.800000e-01	1.000000e-02	0.0	4.900000e-01	1.000000e-02	0.0	5.000000e-01	1.000000e-02	0.0	5.100000e-01	1.000000e-02	0.0	5.200000e-01	1.000000e-02	0.0	5.300000e-01	1.000000e-02	0.0	5.400000e-01	1.000000e-02	0.0	5.500000e-01	1.000000e-02	0.0	5.600000e-01	1.000000e-02	0.0	5.700000e-01	1.000000e-02	0.0	5.800000e-01	1.000000e-02	0.0	5.900000e-01	1.000000e-02	0.0	6.000000e-01	1.000000e-02	0.0	6.100000e-01	1.000000e-02	0.0	6.200000e-01	1.000000e-02	0.0	6.300000e-01	1.000000e-02	0.0	6.400000e-01	1.000000e-02	0.0	6.500000e-01	1.000000e-02	0.0	6.600000e-01	1.000000e-02	0.0	6.700000e-01	1.000000e-02	0.0	6.800000e-01	1.000000e-02	0.0	6.900000e-01	1.000000e-02	0.0	7.000000e-01	1.000000e-02	0.0	7.100000e-01	1.000000e-02	0.0	7.200000e-01	1.000000e-02	0.0	7.300000e-01	1.000000e-02	0.0	7.400000e-01	1.000000e-02	0.0	7.500000e-01	1.000000e-02	0.0	7.600000e-01	1.000000e-02	0.0	7.700000e-01	1.000000e-02	0.0	7.800000e-01	1.000000e-02	0.0	7.900000e-01	1.000000e-02	0.0	8.000000e-01	1.000000e-02	0.0	8.100000e-01	1.000000e-02	0.0	8.200000e-01	1.000000e-02	0.0	8.300000e-01	1.000000e-02	0.0	8.400000e-01	1.000000e-02	0.0	8.500000e-01	1.000000e-02	0.0	8.600000e-01	1.000000e-02	0.0	8.700000e-01	1.000000e-02	0.0	8.800000e-01	1.000000e-02	0.0	8.900000e-01	1.000000e-02	0.0	9.000000e-01	1.000000e-02	0.0	9.100000e-01	1.000000e-02	0.0	9.200000e-01	1.000000e-02	0.0	9.300000e-01	1.000000e-02	0.0	9.400000e-01	1.000000e-02	0.0	9.500000e-01	1.000000e-02	0.0	9.600000e-01	1.000000e-02	0.0	9.700000e-01	1.000000e-02	0.0	9.800000e-01	1.000000e-02	0.0	9.900000e-01	1.000000e-02	0.0	1.000000e+00	1.000000e-02	0.0	0.000000e+00	2.000000e-02	0.0	1.000000e-02	2.000000e-02	0.0	2.000000e-02	2.000000e-02	0.0	3.000000e-02	2.000000e-02	0.0	4.000000e-02	2.000000e-02	0.0	5.000000e-02	2.000000e-02	0.0	6.000000e-02	2.000000e-02	0.0	7.000000e-02	2.000000e-02	0.0	8.000000e-02	2.000000e-02	0.0	9.000000e-02	2.000000e-02	0.0	1.000000e-01	2.000000e-02	0.0	1.100000e-01	2.000000e-02	0.0	1.200000e-01	2.000000e-02	0.0	1.300000e-01	2.000000e-02	0.0	1.400000e-01	2.000000e-02	0.0	1.500000e-01	2.000000e-02	0.0	1.600000e-01	2.000000e-02	0.0	1.700000e-01	2.000000e-02	0.0	1.800000e-01	2.000000e-02	0.0	1.900000e-01	2.000000e-02	0.0	2.000000e-01	2.000000e-02	0.0	2.100000e-01	2.000000e-02	0.0	2.200000e-01	2.000000e-02	0.0	2.300000e-01	2.000000e-02	0.0	2.400000e-01	2.000000e-02	0.0	2.500000e-01	2.000000e-02	0.0	2.600000e-01	2.000000e-02	0.0	2.700000e-01	2.000000e-02	0.0	2.800000e-01	2.000000e-02	0.0	2.900000e-01	2.000000e-02	0.0	3.000000e-01	2.000000e-02	0.0	3.100000e-01	2.000000e-02	0.0	3.200000e-01	2.000000e-02	0.0	3.300000e-01	2.000000e-02	0.0	3.400000e-01	2.000000e-02	0.0	3.500000e-01	2.000000e-02	0.0	3.600000e-01	2.000000e-02	0.0	3.700000e-01	2.000000e-02	0.0	3.800000e-01	2.000000e-02	0.0	3.900000e-01	2.000000e-02	0.0	4.000000e-01	2.000000e-02	0.0	4.100000e-01	2.000000e-02	0.0	4.200000e-01	2.000000e-02	0.0	4.300000e-01	2.000000e-02	0.0	4.400000e-01	2.000000e-02	0.0	4.500000e-01	2.000000e-02	0.0	4.600000e-01	2.000000e-02	0.0	4.700000e-01	2.000000e-02	0.0	4.800000e-01	2.000000e-02	0.0	4.900000e-01	2.000000e-02	0.0	5.000000e-01	2.000000e-02	0.0	5.100000e-01	2.000000e-02	0.0	5.200000e-01	2.000000e-02	0.0	5.300000e-01	2.000000e-02	0.0	5.400000e-01	2.000000e-02	0.0	5.500000e-01	2.000000e-02	0.0	5.600000e-01	2.000000e-02	0.0	5.700000e-01	2.000000e-02	0.0	5.800000e-01	2.000000e-02	0.0	5.900000e-01	2.000000e-02	0.0	6.000000e-01	2.000000e-02	0.0	6.100000e-01	2.000000e-02	0.0	6.200000e-01	2.000000e-02	0.0	6.300000e-01	2.000000e-02	0.0	6.400000e-01	2.000000e-02	0.0	6.500000e-01	2.000000e-02	0.0	6.600000e-01	2.000000e-02	0.0	6.700000e-01	2.000000e-02	0.0	6.800000e-01	2.000000e-02	0.0	6.900000e-01	2.000000e-02	0.0	7.000000e-01	2.000000e-02	0.0	7.100000e-01	2.000000e-02	0.0	7.200000e-01	2.000000e-02	0.0	7.300000e-01	2.000000e-02	0.0	7.400000e-01	2.000000e-02	0.0	7.500000e-01	2.000000e-02	0.0	7.600000e-01	2.000000e-02	0.0	7.700000e-01	2.000000e-02	0.0	7.800000e-01	2.000000e-02	0.0	7.900000e-01	2.000000e-02	0.0	8.000000e-01	2.000000e-02	0.0	8.100000e-01	2.000000e-02	0.0	8.200000e-01	2.000000e-02	0.0	8.300000e-01	2.000000e-02	0.0	8.400000e-01	2.000000e-02	0.0	8.500000e-01	2.000000e-02	0.0	8.600000e-01	2.000000e-02	0.0	8.700000e-01	2.000000e-02	0.0	8.800000e-01	2.000000e-02	0.0	8.900000e-01	2.000000e-02	0.0	9.000000e-01	2.000000e-02	0.0	9.100000e-01	2.000000e-02	0.0	9.200000e-01	2.000000e-02	0.0	9.300000e-01	2.000000e-02	0.0	9.400000e-01	2.000000e-02	0.0	9.500000e-01	2.000000e-02	0.0	9.600000e-01	2.000000e-02	0.0	9.700000e-01	2.000000e-02	0.0	9.800000e-01	2.000000e-02	0.0	9.900000e-01	2.000000e-02	0.0	1.000000e+00	2.000000e-02	0.0	0.000000e+00	3.000000e-02	0.0	1.000000e-02	3.000000e-02	0.0	2.000000e-02	3.000000e-02	0.0	3.000000e-02	3.000000e-02	0.0	4.000000e-02	3.000000e-02	0.0	5.000000e-02	3.000000e-02	0.0	6.000000e-02	3.000000e-02	0.0	7.000000e-02	3.000000e-02	0.0	8.000000e-02	3.000000e-02	0.0	9.000000e-02	3.000000e-02	0.0	1.000000e-01	3.000000e-02	0.0	1.100000e-01	3.000000e-02	0.0	1.200000e-01	3.000000e-02	0.0	1.300000e-01	3.000000e-02	0.0	1.400000e-01	3.000000e-02	0.0	1.500000e-01	3.000000e-02	0.0	1.600000e-01	3.000000e-02	0.0	1.700000e-01	3.000000e-02	0.0	1.800000e-01	3.000000e-02	0.0	1.900000e-01	3.000000e-02	0.0	2.000000e-01	3.000000e-02	0.0	2.100000e-01	3.000000e-02	0.0	2.200000e-01	3.000000e-02	0.0	2.300000e-01	3.000000e-02	0.0	2.400000e-01	3.000000e-02	0.0	2.500000e-01	3.000000e-02	0.0	2.600000e-01	3.000000
[...]
POINT_DATA 10201

SCALARS Height double 1
LOOKUP_TABLE default
9.985027e-01	9.985114e-01	9.985181e-01	9.985177e-01	9.985264e-01	9.985377e-01	9.985445e-01	9.985404e-01	9.985315e-01	9.985167e-01	9.984983e-01	9.984791e-01	9.984605e-01	9.984446e-01	9.984316e-01	9.984211e-01	9.984115e-01	9.984015e-01	9.983902e-01	9.983775e-01	9.983615e-01	9.983380e-01	9.983090e-01	9.982773e-01	9.982447e-01	9.982105e-01	9.981752e-01	9.981372e-01	9.980961e-01	9.980509e-01	9.980016e-01	9.979474e-01	9.978880e-01	9.978233e-01	9.977532e-01	9.976776e-01	9.975956e-01	9.975059e-01	9.974073e-01	9.972981e-01	9.971771e-01	9.970427e-01	9.968933e-01	9.967267e-01	9.965384e-01	9.963199e-01	9.960548e-01	9.957148e-01	9.952530e-01	9.946005e-01	9.936740e-01	9.924134e-01	9.908576e-01	9.892126e-01	9.878075e-01	9.868879e-01	9.864529e-01	9.863755e-01	9.866832e-01	9.879598e-01	9.905883e-01	9.945311e-01	9.995034e-01	1.005101e+00	1.010883e+00	1.016281e+00	1.020593e+00	1.023301e+00	1.024483e+00	1.024574e+00	1.023181e+00	1.018715e+00	1.011586e+00	1.004796e+00	1.000657e+00	9.988611e-01	9.982372e-01	9.980443e-01	9.979811e-01	9.979446e-01	9.978976e-01	9.978235e-01	9.977149e-01	9.976046e-01	9.975966e-01	9.979840e-01	9.994914e-01	1.003276e+00	1.009585e+00	1.015988e+00	1.019368e+00	1.019368e+00	1.017674e+00	1.014596e+00	1.010120e+00	1.004576e+00	9.985743e-01	9.926482e-01	9.872879e-01	9.838133e-01	9.812416e-01	9.985167e-01	9.985151e-01	9.985233e-01	9.985220e-01	9.985300e-01	9.985385e-01	9.985440e-01	9.985421e-01	9.985331e-01	9.985169e-01	9.984970e-01	9.984766e-01	9.984571e-01	9.984399e-01	9.984259e-01	9.984139e-01	9.984024e-01	9.983906e-01	9.983768e-01	9.983607e-01	9.983434e-01	9.983204e-01	9.982949e-01	9.982671e-01	9.982353e-01	9.982046e-01	9.981704e-01	9.981336e-01	9.980930e-01	9.980483e-01	9.979991e-01	9.979450e-01	9.978857e-01	9.978210e-01	9.977507e-01	9.976746e-01	9.975920e-01	9.975019e-01	9.974030e-01	9.972928e-01	9.971710e-01	9.970356e-01	9.968849e-01	9.967165e-01	9.965260e-01	9.963049e-01	9.960373e-01	9.956945e-01	9.952295e-01	9.945740e-01	9.936457e-01	9.923837e-01	9.908229e-01	9.891586e-01	9.877074e-01	9.867529e-01	9.863891e-01	9.863558e-01	9.866812e-01	9.879243e-01	9.905279e-01	9.944892e-01	9.994924e-01	1.005125e+00	1.010931e+00	1.016373e+00	1.020825e+00	1.023651e+00	1.024587e+00	1.024553e+00	1.023253e+00	1.019055e+00	1.011893e+00	1.004704e+00	1.000357e+00	9.986498e-01	9.981449e-01	9.980101e-01	9.979657e-01	9.979332e-01	9.978869e-01	9.978135e-01	9.977005e-01	9.975679e-01	9.974994e-01	9.977653e-01	9.991828e-01	1.003179e+00	1.009883e+00	1.016284e+00	1.019404e+00	1.019342e+00	1.017782e+00	1.014906e+00	1.010244e+00	1.004548e+00	9.985240e-01	9.926495e-01	9.872496e-01	9.838011e-01	9.811711e-01	9.985243e-01	9.985232e-01	9.985346e-01	9.985317e-01	9.985377e-01	9.985443e-01	9.985479e-01	9.985450e-01	9.985359e-01	9.985192e-01	9.984994e-01	9.984791e-01	9.984593e-01	9.984416e-01	9.984259e-01	9.984131e-01	9.984023e-01	9.983914e-01	9.983777e-01	9.983631e-01	9.983456e-01	9.983228e-01	9.982947e-01	9.982641e-01	9.982327e-01	9.981991e-01	9.981662e-01	9.981291e-01	9.980889e-01	9.980449e-01	9.979964e-01	9.979430e-01	9.978846e-01	9.978209e-01	9.977515e-01	9.976763e-01	9.975947e-01	9.975055e-01	9.974073e-01	9.972987e-01	9.971781e-01	9.970430e-01	9.968918e-01	9.967219e-01	9.965291e-01	9.963051e-01	9.960338e-01	9.956849e-01	9.952109e-01	9.945445e-01	9.936104e-01	9.923605e-01	9.908318e-01	9.891940e-01	9.877406e-01	9.868222e-01	9.865332e-01	9.865290e-01	9.868825e-01	9.881291e-01	9.906894e-01	9.946106e-01	9.995586e-01	1.005113e+00	1.010826e+00	1.016251e+00	1.020794e+00	1.023530e+00	1.024252e+00	1.024189e+00	1.022952e+00	1.019018e+00	1.012134e+00	1.004896e+00	1.000363e+00	9.986037e-01	9.981178e-01	9.979977e-01	9.979575e-01	9.979249e-01	9.978777e-01	9.978062e-01	9.976962e-01	9.975603e-01	9.974731e-01	9.977085e-01	9.991632e-01	1.003356e+00	1.010109e+00	1.016209e+00	1.019044e+00	1.018945e+00	1.017468e+00	1.014806e+00	1.010230e+00	1.004489e+00	9.985701e-01	9.928008e-01	9.874824e-01	9.840953e-01	9.814994e-01	9.985226e-01	9.985223e-01	9.985329e-01	9.985297e-01	9.985337e-01	9.985386e-01	9.985413e-01	9.985376e-01	9.985266e-01	9.985108e-01	9.984929e-01	9.984753e-01	9.984576e-01	9.984409e-01	9.984268e-01	9.984137e-01	9.984032e-01	9.983910e-01	9.983800e-01	9.983648e-01	9.983462e-01	9.983242e-01	9.982934e-01	9.982631e-01	9.982311e-01	9.981982e-01	9.981638e-01	9.981258e-01	9.980847e-01	9.980399e-01	9.979909e-01	9.979372e-01	9.978785e-01	9.978145e-01	9.977448e-01	9.976695e-01	9.975875e-01	9.974980e-01	9.973997e-01	9.972907e-01	9.971697e-01	9.970334e-01	9.968800e-01	9.967069e-01	9.965098e-01	9.962802e-01	9.960010e-01	9.956412e-01	9.951508e-01	9.944630e-01	9.935086e-01	9.922537e-01	9.907349e-01	9.891018e-01	9.876728e-01	9.868677e-01	9.866718e-01	9.866853e-01	9.870840e-01	9.883837e-01	9.909729e-01	9.948684e-01	9.997773e-01	1.005246e+00	1.010895e+00	1.016362e+00	1.020898e+00	1.023357e+00	1.023930e+00	1.023836e+00	1.022613e+00	1.018841e+00	1.012172e+00	1.005010e+00	1.000430e+00	9.986193e-01	9.981143e-01	9.979878e-01	9.979441e-01	9.979084e-01	9.978587e-01	9.977875e-01	9.976801e-01	9.975462e-01	9.974563e-01	9.976900e-01	9.991775e-01	1.003435e+00	1.010129e+00	1.015978e+00	1.018616e+00	1.018476e+00	1.017034e+00	1.014615e+00	1.010282e+00	1.004605e+00	9.987641e-01	9.930797e-01	9.878936e-01	9.846150e-01	9.820699e-01	9.985265e-01	9.985261e-01	9.985356e-01	9.985306e-01	9.985316e-01	9.985342e-01	9.985352e-01	9.985297e-01	9.985178e-01	9.985018e-01	9.984850e-01	9.984688e-01	9.984527e-01	9.984371e-01	9.984227e-01	9.984104e-01	9.983995e-01	9.983879e-01	9.983770e-01	9.983610e-01	9.983426e-01	9.983204e-01	9.982888e-01	9.982583e-01	9.982257e-01	9.981926e-01	9.981574e-01	9.981190e-01	9.980774e-01	9.980320e-01	9.979822e-01	9.979277e-01	9.978686e-01	9.978045e-01	9.977351e-01	9.976598e-01	9.975780e-01	9.974886e-01	9.973903e-01	9.972812e-01	9.971591e-01	9.970215e-01	9.968657e-01	9.966891e-01	9.964873e-01	9.962508e-01	9.959605e-01	9.955846e-01	9.950711e-01	9.943551e-01	9.933756e-01	9.921074e-01	9.905851e-01	9.889604e-01	9.876318e-01	9.869938e-01	9.868631e-01	9.868991e-01	9.873575e-01	9.887288e-01	9.913599e-01	9.952421e-01	1.000070e+00	1.005441e+00	1.011061e+00	1.016552e+00	1.020916e+00	1.023060e+00	1.023505e+00	1.023396e+00	1.022178e+00	1.018526e+00	1.012093e+00	1.005137e+00	1.000580e+00	9.986964e-01	9.981332e-01	9.979828e-01	9.979297e-01	9.978887e-01	9.978364e-01	9.977654e-01	9.976605e-01	9.975321e-01	9.974535e-01	9.977176e-01	9.992598e-01	1.003496e+00	1.009987e+00	1.015594e+00	1.018077e+00	1.017893e+00	1.016462e+00	1.014224e+00	1.010266e+00	1.004876e+00	9.991193e-01	9.935115e-01	9.884630e-01	9.853198e-01	9.828668e-01	9.985294e-01	9.985277e-01	9.985358e-01	9.985297e-01	9.985285e-01	9.985291e-01	9.985285e-01	9.985217e-01	9.985084e-01	9.984926e-01	9.984772e-01	9.984623e-01	9.984473e-01	9.984325e-01	9.984188e-01	9.984064e-01	9.983949e-01	9.983836e-01	9.983721e-01	9.983561e-01	9.983379e-01	9.983150e-01	9.982837e-01	9.982530e-01	9.982197e-01	9.981870e-01	9.981512e-01	9.981125e-01	9.980704e-01	9.980243e-01	9.979738e-01	9.979185e-01	9.978587e-01	9.977940e-01	9.977244e-01	9.976490e-01	9.975670e-01	9.974772e-01	9.973783e-01	9.972680e-01	9.971441e-01	9.970041e-01	9.968453e-01	9.966650e-01	9.964576e-01	9.962122e-01	9.959080e-01	9.955086e-01	9.949661e-01	9.942180e-01	9.932097e-01	9.919138e-01	9.903693e-01	9.887846e-01	9.876307e-01	9.871655e-01	9.870805e-01	9.871558e-01	9.876969e-01	9.891669e-01	9.918556e-01	9.957118e-01	1.000437e+00	1.005729e+00	1.011345e+00	1.016779e+00	1.020848e+00	1.022688e+00	1.023015e+00	1.022882e+00	1.021647e+00	1.018068e+00	1.011902e+00	1.005264e+00	1.000787e+00	9.988146e-01	9.981702e-01	9.979810e-01	9.979129e-01	9.978648e-01	9.978103e-01	9.977393e-01	9.976363e-01	9.975158e-01	9.974593e-01	9.977821e-01	9.994023e-01	1.003544e+00	1.009706e+00	1.015028e+00	1.017408e+00	1.017206e+00	1.015770e+00	1.013669e+00	1.010197e+00	1.005263e+00	9.996537e-01	9.940866e-01	9.891802e-01	9.862123e-01	9.838884e-01	9.985291e-01	9.985268e-01	9.985324e-01	9.985266e-01	9.985242e-01	9.985232e-01	9.985211e-01	9.985131e-01	9.984994e-01	9.984842e-01	9.984700e-01	9.984563e-01	9.984421e-01	9.984276e-01	9.984140e-01	9.984013e-01	9.983887e-01	9.983774e-01	9.983651e-01	9.983488e-01	9.983311e-01	9.983066e-01	9.982761e-01	9.982453e-01	9.982114e-01	9.981785e-01	9.981424e-01	9.981034e-01	9.980610e-01	9.980143e-01	9.979629e-01	9.979068e-01	9.978463e-01	9.977810e-01	9.977110e-01	9.976354e-01	9.975532e-01	9.974627e-01	9.973625e-01	9.972506e-01	9.971244e-01	9.969816e-01	9.968197e-01	9.966353e-01	9.964216e-01	9.961653e-01	9.958423e-01	9.954157e-01	9.948335e-01	9.940419e-01	9.929940e-01	9.916611e-01	9.900976e-01	9.886163e-01	9.876840e-01	9.873706e-01	9.873318e-01	9.874640e-01	9.881122e-01	9.897026e-01	9.924529e-01	9.962683e-01	1.000889e+00	1.006115e+00	1.011715e+00	1.016988e+00	1.020688e+00	1.022220e+00	1.022464e+00	1.022295e+00	1.021010e+00	1.017486e+00	1.011634e+00	1.005388e+00	1.001049e+00	9.989797e-01	9.982274e-01	9.979837e-01	9.978936e-01	9.978374e-01	9.977806e-01	9.977088e-01	9.976087e-01	9.974990e-01	9.974752e-01	9.978817e-01	9.995896e-01	1.003580e+00	1.009309e+00	1.014296e+00	1.016595e+00	1.016389e+00	1.014953e+00	1.013032e+00	1.010093e+00	1.005691e+00	1.000311e+00	9.948084e-01	9.900570e-01	9.872843e-01	9.851165e-01	9.985223e-01	9.985214e-01	9.985252e-01	9.985207e-01	9.985168e-01	9.985149e-01	9.985115e-01	9.985029e-01	9.984900e-01	9.984766e-01	9.984640e-01	9.984514e-01	9.984378e-01	9.984237e-01	9.984099e-01	9.983969e-01	9.983838e-01	9.983713e-01	9.983581e-01	9.983416e-01	9.983232e-01	9.982968e-01	9.982677e-01	9.982364e-01	9.982027e-01	9.981685e-01	9.981318e-01	9.980923e-01	9.980492e-01	9.980018e-01	9.979496e-01	9.978930e-01	9.978319e-01	9.977661e-01	9.976956e-01	9.976192e-01	9.975361e-01	9.974445e-01	9.973425e-01	9.972280e-01	9.970987e-01	9.969526e-01	9.967870e-01	9.965976e-01	9.963760e-01	9.961056e-01	9.957597e-01	9.952993e-01	9.946750e-01	9.938349e-01	9.927297e-01	9.913403e-01	9.897925e-01	9.884812e-01	9.877966e-01	9.876193e-01	9.876178e-01	9.878293e-01	9.886150e-01	9.903412e-01	9.931458e-01	9.969080e-01	1.001438e+00	1.006608e+00	1.012134e+00	1.017154e+00	1.020442e+00	1.021679e+00	1.021846e+00	1.021626e+00	1.020272e+00	1.016803e+00	1.011302e+00	1.005514e+00	1.001350e+00	9.991863e-01	9.983049e-01	9.979915e-01	9.978723e-01	9.978041e-01	9.977448e-01	9.976734e-01	9.975777e-01	9.974828e-01	9.975029e-01	9.980131e-01	9.998035e-01	1.003597e+00	1.008830e+00	1.013429e+00	1.015628e+00	1.015426e+00	1.014024e+00	1.012353e+00	1.009967e+00	1.006131e+00	1.001052e+00	9.956756e-01	9.911102e-01	9.885423e-01	9.865507e-01	9.985145e-01	9.985162e-01	9.985177e-01	9.985134e-01	9.985087e-01	9.985048e-01	9.985005e-01	9.984921e-01	9.984802e-01	9.984680e-01	9.984562e-01	9.984441e-01	9.984308e-01	9.984170e-01	9.984034e-01	9.983898e-01	9.983771e-01	9.983640e-01	9.983498e-01	9.983346e-01	9.983149e-01	9.982888e-01	9.982592e-01	9.982262e-01	9.981941e-01	9.981585e-01	9.981210e-01	9.980804e-01	9.980360e-01	9.979874e-01	9.979346e-01	9.978774e-01	9.978161e-01	9.977493e-01	9.976778e-01	9.976004e-01	9.975162e-01	9.974230e-01	9.973188e-01	9.972012e-01	9.970684e-01	9.969184e-01	9.967484e-01	9.965526e-01	9.963203e-01	9.960318e-01	9.956580e-01	9.951576e-01	9.944827e-01	9.935819e-01	9.924054e-01	9.909625e-01	9.894776e-01	9.884010e-01	9.879632e-01	9.878969e-01	9.879394e-01	9.882591e-01	9.892106e-01	9.910809e-01	9.939300e-01	9.976344e-01	1.002083e+00	1.007187e+00	1.012570e+00	1.017256e+00	1.020111e+00	1.021062e+00	1.021161e+00	1.020879e+00	1.019441e+00	1.016044e+00	1.010930e+00	1.005636e+00	1.001680e+00	9.994283e-01	9.984029e-01	9.980045e-01	9.978495e-01	9.977672e-01	9.977034e-01	9.976318e-01	9.975425e-01	9.974675e-01	9.975429e-01	9.981681e-01	1.000030e+00	1.003590e+00	1.008287e+00	1.012445e+00	1.014510e+00	1.014322e+00	1.013006e+00	1.011645e+00	1.009824e+00	1.006556e+00	1.001832e+00	9.966736e-01	9.923517e-01	9.899954e-01	9.881874e-01	9.985064e-01	9.985093e-01	9.985080e-01	9.985054e-01	9.985000e-01	9.984951e-01	9.984898e-01	9.984822e-01	9.984712e-01	9.984600e-01	9.984485e-01	9.984355e-01	9.984221e-01	9.984079e-01	9.983942e-01	9.983809e-01	9.983678e-01	9.983549e-01	9.983396e-01	9.983230e-01	9.983037e-01	9.982776e-01	9.982475e-01	9.982176e-01	9.981837e-01	9.981486e-01	9.981099e-01	9.980678e-01	9.980221e-01	9.979725e-01	9.979189e-01	9.978610e-01	9.977990e-01	9.977310e-01	9.976583e-01	9.975792e-01	9.974929e-01	9.973974e-01	9.972903e-01	9.971694e-01	9.970328e-01	9.968784e-01	9.967030e-01	9.964992e-01	9.962538e-01	9.959441e-01	9.955368e-01	9.949899e-01	9.942547e-01	9.932771e-01	9.920164e-01	9.905394e-01	9.891841e-01	9.884106e-01	9.881966e-01	9.881905e-01	9.883002e-01	9.887679e-01	9.899029e-01	9.919156e-01	9.948004e-01	9.984503e-01	1.002818e+00	1.007820e+00	1.012990e+00	1.017275e+00	1.019672e+00	1.020369e+00	1.020413e+00	1.020053e+00	1.018530e+00	1.015232e+00	1.010542e+00	1.005758e+00	1.002027e+00	9.996992e-01	9.985198e-01	9.980223e-01	9.978241e-01	9.977254e-01	9.976565e-01	9.975844e-01	9.975024e-01	9.974506e-01	9.975922e-01	9.983428e-01	1.000259e+00	1.003559e+00	1.007693e+00	1.011360e+00	1.013241e+00	1.013087e+00	1.011929e+00	1.010925e+00	1.009652e+00	1.006941e+00	1.002619e+00	9.977982e-01	9.937902e-01	9.916470e-01	9.900120e-01	9.984963e-01	9.984994e-01	9.984966e-01	9.984959e-01	9.984899e-01	9.984845e-01	9.984788e-01	9.984719e-01	9.984620e-01	9.984516e-01	9.984402e-01	9.984273e-01	9.984129e-01	9.983984e-01	9.983843e-01	9.983706e-01	9.983571e-01	9.983431e-01	9.983275e-01	9.983097e-01	9.982891e-01	9.982633e-01	9.982353e-01	9.982044e-01	9.981716e-01	9.981359e-01	9.980965e-01	9.980534e-01	9.980067e-01	9.979566e-01	9.979021e-01	9.978436e-01	9.977809e-01	9.977117e-01	9.976372e-01	9.975558e-01	9.974665e-01	9.973677e-01	9.972570e-01	9.971320e-01	9.969908e-01	9.968312e-01	9.966489e-01	9.964354e-01	9.961737e-01	9.958383e-01	9.953921e-01	9.947903e-01	9.939816e-01	9.929096e-01	9.915573e-01	9.900899e-01	9.889669e-01	9.885220e-01	9.884654e-01	9.885004e-01	9.887208e-01	9.893688e-01	9.906974e-01	9.928401e-01	9.957544e-01	9.993536e-01	1.003627e+00	1.008477e+00	1.013363e+00	1.017181e+00	1.019127e+00	1.019605e+00	1.019601e+00	1.019153e+00	1.017555e+00	1.014396e+00	1.010157e+00	1.005883e+00	1.002384e+00	9.999915e-01	9.986525e-01	9.980444e-01	9.977962e-01	9.976788e-01	9.976044e-01	9.975323e-01	9.974564e-01	9.974297e-01	9.976456e-01	9.985257e-01	1.000481e+00	1.003502e+00	1.007058e+00	1.010185e+00	1.011832e+00	1.011735e+00	1.010840e+00	1.010226e+00	1.009422e+00	1.007222e+00	1.003407e+00	9.990555e-01	9.954201e-01	9.934916e-01	9.920091e-01	9.984845e-01	9.984870e-01	9.984836e-01	9.984843e-01	9.984785e-01	9.984729e-01	9.984669e-01	9.984607e-01	9.984519e-01	9.984416e-01	9.984309e-01	9.984179e-01	9.984036e-01	9.983889e-01	9.983750e-01	9.983611e-01	9.983471e-01	9.983324e-01	9.983162e-01	9.982968e-01	9.982746e-01	9.982492e-01	9.982207e-01	9.981899e-01	9.981567e-01	9.981204e-01	9.980800e-01	9.980359e-01	9.979884e-01	9.979374e-01	9.978828e-01	9.978240e-01	9.977606e-01	9.976906e-01	9.976143e-01	9.975302e-01	9.974375e-01	9.973344e-01	9.972191e-01	9.970891e-01	9.969423e-01	9.967764e-01	9.965858e-01	9.963598e-01	9.960783e-01	9.957117e-01	9.952189e-01	9.945507e-01	9.936507e-01	9.924659e-01	9.910256e-01	9.896618e-01	9.888991e-01	9.887214e-01	9.887346e-01	9.888446e-01	9.892218e-01	9.900769e-01	9.915976e-01	9.938524e-01	9.967894e-01	1.000340e+00	1.004492e+00	1.009130e+00	1.013647e+00	1.016963e+00	1.018472e+00	1.018770e+00	1.018722e+00	1.018183e+00	1.016533e+00	1.013562e+00	1.009799e+00	1.006017e+00	1.002746e+00	1.000296e+00	9.987960e-01	9.980694e-01	9.977665e-01	9.976286e-01	9.975479e-01	9.974746e-01	9.974043e-01	9.974034e-01	9.976980e-01	9.987054e-01	1.000682e+00	1.003415e+00	1.006393e+00	1.008936e+00	1.010299e+00	1.010311e+00	1.009818e+00	1.009562e+00	1.009091e+00	1.007374e+00	1.004201e+00	1.000430e+00	9.972246e-01	9.955194e-01	9.941687e-01	9.984712e-01	9.984723e-01	9.984691e-01	9.984706e-01	9.984655e-01	9.984599e-01	9.984540e-01	9.984484e-01	9.984404e-01	9.984306e-01	9.984199e-01	9.984078e-01	9.983940e-01	9.983791e-01	9.983653e-01	9.983507e-01	9.983356e-01	9.983196e-01	9.983015e-01	9.982816e-01	9.982586e-01	9.982330e-01	9.982049e-01	9.981738e-01	9.981400e-01	9.981027e-01	9.980613e-01	9.980161e-01	9.979675e-01	9.979152e-01	9.978601e-01	9.978011e-01	9.977365e-01	9.976657e-01	9.975877e-01	9.975010e-01	9.974045e-01	9.972969e-01	9.971762e-01	9.970407e-01	9.968881e-01	9.967147e-01	9.965145e-01	9.962722e-01	9.959663e-01	9.955611e-01	9.950113e-01	9.942618e-01	9.932466e-01	9.919244e-01	9.904459e-01	9.893473e-01	9.889765e-01	9.889530e-01	9.890124e-01	9.892494e-01	9.898211e-01	9.909001e-01	9.926030e-01	9.949494e-01	9.978990e-01	1.001401e+00	1.005405e+00	1.009741e+00	1.013801e+00	1.016586e+00	1.017707e+00	1.017874e+00	1.017776e+00	1.017150e+00	1.015485e+00	1.012757e+00	1.009478e+00	1.006162e+00	1.003104e+00	1.000603e+00	9.989432e-01	9.980949e-01	9.977349e-01	9.975757e-01	9.974869e-01	9.974112e-01	9.973464e-01	9.973709e-01	9.977432e-01	9.988677e-01	1.000849e+00	1.003290e+00	1.005693e+00	1.007622e+00	1.008678e+00	1.008918e+00	1.008910e+00	1.008898e+00	1.008625e+00	1.007429e+00	1.004978e+00	1.001888e+00	9.991854e-01	9.977165e-01	9.964828e-01	9.984570e-01	9.984561e-01	9.984544e-01	9.984558e-01	9.984508e-01	9.984458e-01	9.984402e-01	9.984351e-01	9.984276e-01	9.984181e-01	9.984080e-01	9.983968e-01	9.983835e-01	9.983690e-01	9.983538e-01	9.983389e-01	9.983228e-01	9.983058e-01	9.982870e-01	9.982658e-01	9.982416e-01	9.982162e-01	9.981880e-01	9.981569e-01	9.981220e-01	9.980836e-01	9.980410e-01	9.979944e-01	9.979445e-01	9.978921e-01	9.978352e-01	9.977746e-01	9.977089e-01	9.976364e-01	9.975561e-01	9.974663e-01	9.973657e-01	9.972531e-01	9.971270e-01	9.969861e-01	9.968277e-01	9.966467e-01	9.964340e-01	9.961740e-01	9.958364e-01	9.953828e-01	9.947620e-01	9.939082e-01	9.927438e-01	9.912771e-01	9.899156e-01	9.892488e-01	9.891393e-01	9.891732e-01	9.893290e-01	9.897382e-01	9.905346e-01	9.918415e-01	9.937106e-01	9.961286e-01	9.990738e-01	1.002512e+00	1.006334e+00	1.010278e+00	1.013777e+00	1.016046e+00	1.016843e+00	1.016917e+00	1.016769e+00	1.016067e+00	1.014441e+00	1.012010e+00	1.009213e+00	1.006320e+00	1.003451e+00	1.000899e+00	9.990854e-01	9.981162e-01	9.976990e-01	9.975182e-01	9.974198e-01	9.973405e-01	9.972808e-01	9.973274e-01	9.977728e-01	9.990042e-01	1.000973e+00	1.003111e+00	1.004948e+00	1.006253e+00	1.007061e+00	1.007680e+00	1.008072e+00	1.008163e+00	1.008086e+00	1.007396e+00	1.005705e+00	1.003399e+00	1.001275e+00	1.000059e+00	9.989425e-01	9.984430e-01	9.984398e-01	9.984386e-01	9.984404e-01	9.984354e-01	9.984310e-01	9.984254e-01	9.984209e-01	9.984142e-01	9.984050e-01	9.983951e-01	9.983851e-01	9.983730e-01	9.983577e-01	9.983421e-01	9.983250e-01	9.983080e-01	9.982896e-01	9.982697e-01	9.982472e-01	9.982219e-01	9.981965e-01	9.981685e-01	9.981370e-01	9.981018e-01	9.980627e-01	9.980189e-01	9.979722e-01	9.979218e-01	9.978671e-01	9.978090e-01	9.977465e-01	9.976783e-01	9.976034e-01	9.975200e-01	9.974262e-01	9.973206e-01	9.972025e-01	9.970707e-01	9.969240e-01	9.967593e-01	9.965708e-01	9.963445e-01	9.960590e-01	9.956818e-01	9.951682e-01	9.944577e-01	9.934620e-01	9.921061e-01	9.905819e-01	9.895680e-01	9.893128e-01	9.893143e-01	9.894128e-01	9.897159e-01	9.903349e-01	9.913748e-01	9.929013e-01	9.949157e-01	9.973861e-01	1.000304e+00	1.003646e+00	1.007233e+00	1.010692e+00	1.013564e+00	1.015341e+00	1.015892e+00	1.015899e+00	1.015704e+00	1.014957e+00	1.013434e+00	1.011348e+00	1.009011e+00	1.006492e+00	1.003784e+00	1.001176e+00	9.992144e-01	9.981299e-01	9.976572e-01	9.974546e-01	9.973461e-01	9.972613e-01	9.972026e-01	9.972685e-01	9.977749e-01	9.990975e-01	1.001038e+00	1.002871e+00	1.004134e+00	1.004876e+00	1.005628e+00	1.006632e+00	1.007197e+00	1.007385e+00	1.007517e+00	1.007300e+00	1.006370e+00	1.004932e+00	1.003446e+00	1.002509e+00	1.001531e+00	9.984295e-01	9.984234e-01	9.984233e-01	9.984241e-01	9.984199e-01	9.984153e-01	9.984098e-01	9.984059e-01	9.983994e-01	9.983914e-01	9.983816e-01	9.983720e-01	9.983600e-01	9.983448e-01	9.983273e-01	9.983088e-01	9.982911e-01	9.982716e-01	9.982511