# vtk DataFile Version 3.0
vtk output
ASCII
DATASET STRUCTURED_GRID
DIMENSIONS 101 101 1
POINTS 10201 double
0.000000e+00	0.000000e+00	0.0	1.000000e-02	0.000000e+00	0.0	2.000000e-02	0.000000e+00	0.0	3.000000e-02	0.000000e+00	0.0	4.000000e-02	0.000000e+00	0.0	5.000000e-02	0.000000e+00	0.0	6.000000e-02	0.000000e+00	0.0	7.000000e-02	0.000000e+00	0.0	8.000000e-02	0.000000e+00	0.0	9.000000e-02	0.000000e+00	0.0	1.000000e-01	0.000000e+00	0.0	1.100000e-01	0.000000e+00	0.0	1.200000e-01	0.000000e+00	0.0	1.300000e-01	0.000000e+00	0.0	1.400000e-01	0.000000e+00	0.0	1.500000e-01	0.000000e+00	0.0	1.600000e-01	0.000000e+00	0.0	1.700000e-01	0.000000e+00	0.0	1.800000e-01	0.000000e+00	0.0	1.900000e-01	0.000000e+00	0.0	2.000000e-01	0.000000e+00	0.0	2.100000e-01	0.000000e+00	0.0	2.200000e-01	0.000000e+00	0.0	2.300000e-01	0.000000e+00	0.0	2.400000e-01	0.000000e+00	0.0	2.500000e-01	0.000000e+00	0.0	2.600000e-01	0.000000e+00	0.0	2.700000e-01	0.000000e+00	0.0	2.800000e-01	0.000000e+00	0.0	2.900000e-01	0.000000e+00	0.0	3.000000e-01	0.000000e+00	0.0	3.100000e-01	0.000000e+00	0.0	3.200000e-01	0.000000e+00	0.0	3.300000e-01	0.000000e+00	0.0	3.400000e-01	0.000000e+00	0.0	3.500000e-01	0.000000e+00	0.0	3.600000e-01	0.000000e+00	0.0	3.700000e-01	0.000000e+00	0.0	3.800000e-01	0.000000e+00	0.0	3.900000e-01	0.000000e+00	0.0	4.000000e-01	0.000000e+00	0.0	4.100000e-01	0.000000e+00	0.0	4.200000e-01	0.000000e+00	0.0	4.300000e-01	0.000000e+00	0.0	4.400000e-01	0.000000e+00	0.0	4.500000e-01	0.000000e+00	0.0	4.600000e-01	0.000000e+00	0.0	4.700000e-01	0.000000e+00	0.0	4.800000e-01	0.000000e+00	0.0	4.900000e-01	0.000000e+00	0.0	5.000000e-01	0.000000e+00	0.0	5.100000e-01	0.000000e+00	0.0	5.200000e-01	0.000000e+00	0.0	5.300000e-01	0.000000e+00	0.0	5.400000e-01	0.000000e+00	0.0	5.500000e-01	0.000000e+00	0.0	5.600000e-01	0.000000e+00	0.0	5.700000e-01	0.000000e+00	0.0	5.800000e-01	0.000000e+00	0.0	5.900000e-01	0.000000e+00	0.0	6.000000e-01	0.000000e+00	0.0	6.100000e-01	0.000000e+00	0.0	6.200000e-01	0.000000e+00	0.0	6.300000e-01	0.000000e+00	0.0	6.400000e-01	0.000000e+00	0.0	6.500000e-01	0.000000e+00	0.0	6.600000e-01	0.000000e+00	0.0	6.700000e-01	0.000000e+00	0.0	6.800000e-01	0.000000e+00	0.0	6.900000e-01	0.000000e+00	0.0	7.000000e-01	0.000000e+00	0.0	7.100000e-01	0.000000e+00	0.0	7.200000e-01	0.000000e+00	0.0	7.300000e-01	0.000000e+00	0.0	7.400000e-01	0.000000e+00	0.0	7.500000e-01	0.000000e+00	0.0	7.600000e-01	0.000000e+00	0.0	7.700000e-01	0.000000e+00	0.0	7.800000e-01	0.000000e+00	0.0	7.900000e-01	0.000000e+00	0.0	8.000000e-01	0.000000e+00	0.0	8.100000e-01	0.000000e+00	0.0	8.200000e-01	0.000000e+00	0.0	8.300000e-01	0.000000e+00	0.0	8.400000e-01	0.000000e+00	0.0	8.500000e-01	0.000000e+00	0.0	8.600000e-01	0.000000e+00	0.0	8.700000e-01	0.000000e+00	0.0	8.800000e-01	0.000000e+00	0.0	8.900000e-01	0.000000e+00	0.0	9.000000e-01	0.000000e+00	0.0	9.100000e-01	0.000000e+00	0.0	9.200000e-01	0.000000e+00	0.0	9.300000e-01	0.000000e+00	0.0	9.400000e-01	0.000000e+00	0.0	9.500000e-01	0.000000e+00	0.0	9.600000e-01	0.000000e+00	0.0	9.700000e-01	0.000000e+00	0.0	9.800000e-01	0.000000e+00	0.0	9.900000e-01	0.000000e+00	0.0	1.000000e+00	0.000000e+00	0.0	0.000000e+00	1.000000e-02	0.0	1.000000e-02	1.000000e-02	0.0	2.000000e-02	1.000000e-02	0.0	3.000000e-02	1.000000e-02	0.0	4.000000e-02	1.000000e-02	0.0	5.000000e-02	1.000000e-02	0.0	6.000000e-02	1.000000e-02	0.0	7.000000e-02	1.000000e-02	0.0	8.000000e-02	1.000000e-02	0.0	9.000000e-02	1.000000e-02	0.0	1.000000e-01	1.000000e-02	0.0	1.100000e-01	1.000000e-02	0.0	1.200000e-01	1.000000e-02	0.0	1.300000e-01	1.000000e-02	0.0	1.400000e-01	1.000000e-02	0.0	1.500000e-01	1.000000e-02	0.0	1.600000e-01	1.000000e-02	0.0	1.700000e-01	1.000000e-02	0.0	1.800000e-01	1.000000e-02	0.0	1.900000e-01	1.000000e-02	0.0	2.000000e-01	1.000000e-02	0.0	2.100000e-01	1.000000e-02	0.0	2.200000e-01	1.000000e-02	0.0	2.300000e-01	1.000000e-02	0.0	2.400000e-01	1.000000e-02	0.0	2.500000e-01	1.000000e-02	0.0	2.600000e-01	1.000000e-02	0.0	2.700000e-01	1.000000e-02	0.0	2.800000e-01	1.000000e-02	0.0	2.900000e-01	1.000000e-02	0.0	3.000000e-01	1.000000e-02	0.0	3.100000e-01	1.000000e-02	0.0	3.200000e-01	1.000000e-02	0.0	3.300000e-01	1.000000e-02	0.0	3.400000e-01	1.000000e-02	0.0	3.500000e-01	1.000000e-02	0.0	3.600000e-01	1.000000e-02	0.0	3.700000e-01	1.000000e-02	0.0	3.800000e-01	1.000000e-02	0.0	3.900000e-01	1.000000e-02	0.0	4.000000e-01	1.000000e-02	0.0	4.100000e-01	1.000000e-02	0.0	4.200000e-01	1.000000e-02	0.0	4.300000e-01	1.000000e-02	0.0	4.400000e-01	1.000000e-02	0.0	4.500000e-01	1.000000e-02	0.0	4.600000e-01	1.000000e-02	0.0	4.700000e-01	1.000000e-02	0.0	4.800000e-01	1.000000e-02	0.0	4.900000e-01	1.000000e-02	0.0	5.000000e-01	1.000000e-02	0.0	5.100000e-01	1.000000e-02	0.0	5.200000e-01	1.000000e-02	0.0	5.300000e-01	1.000000e-02	0.0	5.400000e-01	1.000000e-02	0.0	5.500000e-01	1.000000e-02	0.0	5.600000e-01	1.000000e-02	0.0	5.700000e-01	1.000000e-02	0.0	5.800000e-01	1.000000e-02	0.0	5.900000e-01	1.000000e-02	0.0	6.000000e-01	1.000000e-02	0.0	6.100000e-01	1.000000e-02	0.0	6.200000e-01	1.000000e-02	0.0	6.300000e-01	1.000000e-02	0.0	6.400000e-01	1.000000e-02	0.0	6.500000e-01	1.000000e-02	0.0	6.600000e-01	1.000000e-02	0.0	6.700000e-01	1.000000e-02	0.0	6.800000e-01	1.000000e-02	0.0	6.900000e-01	1.000000e-02	0.0	7.000000e-01	1.000000e-02	0.0	7.100000e-01	1.000000e-02	0.0	7.200000e-01	1.000000e-02	0.0	7.300000e-01	1.000000e-02	0.0	7.400000e-01	1.000000e-02	0.0	7.500000e-01	1.000000e-02	0.0	7.600000e-01	1.000000e-02	0.0	7.700000e-01	1.000000e-02	0.0	7.800000e-01	1.000000e-02	0.0	7.900000e-01	1.000000e-02	0.0	8.000000e-01	1.000000e-02	0.0	8.100000e-01	1.000000e-02	0.0	8.200000e-01	1.000000e-02	0.0	8.300000e-01	1.000000e-02	0.0	8.400000e-01	1.000000e-02	0.0	8.500000e-01	1.000000e-02	0.0	8.600000e-01	1.000000e-02	0.0	8.700000e-01	1.000000e-02	0.0	8.800000e-01	1.000000e-02	0.0	8.900000e-01	1.000000e-02	0.0	9.000000e-01	1.000000e-02	0.0	9.100000e-01	1.000000e-02	0.0	9.200000e-01	1.000000e-02	0.0	9.300000e-01	1.000000e-02	0.0	9.400000e-01	1.000000e-02	0.0	9.500000e-01	1.000000e-02	0.0	9.600000e-01	1.000000e-02	0.0	9.700000e-01	1.000000e-02	0.0	9.800000e-01	1.000000e-02	0.0	9.900000e-01	1.000000e-02	0.0	1.000000e+00	1.000000e-02	0.0	0.000000e+00	2.000000e-02	0.0	1.000000e-02	2.000000e-02	0.0	2.000000e-02	2.000000e-02	0.0	3.000000e-02	2.000000e-02	0.0	4.000000e-02	2.000000e-02	0.0	5.000000e-02	2.000000e-02	0.0	6.000000e-02	2.000000e-02	0.0	7.000000e-02	2.000000e-02	0.0	8.000000e-02	2.000000e-02	0.0	9.000000e-02	2.000000e-02	0.0	1.000000e-01	2.000000e-02	0.0	1.100000e-01	2.000000e-02	0.0	1.200000e-01	2.000000e-02	0.0	1.300000e-01	2.000000e-02	0.0	1.400000e-01	2.000000e-02	0.0	1.500000e-01	2.000000e-02	0.0	1.600000e-01	2.000000e-02	0.0	1.700000e-01	2.000000e-02	0.0	1.800000e-01	2.000000e-02	0.0	1.900000e-01	2.000000e-02	0.0	2.000000e-01	2.000000e-02	0.0	2.100000e-01	2.000000e-02	0.0	2.200000e-01	2.000000e-02	0.0	2.300000e-01	2.000000e-02	0.0	2.400000e-01	2.000000e-02	0.0	2.500000e-01	2.000000e-02	0.0	2.600000e-01	2.000000e-02	0.0	2.700000e-01	2.000000e-02	0.0	2.800000e-01	2.000000e-02	0.0	2.900000e-01	2.000000e-02	0.0	3.000000e-01	2.000000e-02	0.0	3.100000e-01	2.000000e-02	0.0	3.200000e-01	2.000000e-02	0.0	3.300000e-01	2.000000e-02	0.0	3.400000e-01	2.000000e-02	0.0	3.500000e-01	2.000000e-02	0.0	3.600000e-01	2.000000e-02	0.0	3.700000e-01	2.000000e-02	0.0	3.800000e-01	2.000000e-02	0.0	3.900000e-01	2.000000e-02	0.0	4.000000e-01	2.000000e-02	0.0	4.100000e-01	2.000000e-02	0.0	4.200000e-01	2.000000e-02	0.0	4.300000e-01	2.000000e-02	0.0	4.400000e-01	2.000000e-02	0.0	4.500000e-01	2.000000e-02	0.0	4.600000e-01	2.000000e-02	0.0	4.700000e-01	2.000000e-02	0.0	4.800000e-01	2.000000e-02	0.0	4.900000e-01	2.000000e-02	0.0	5.000000e-01	2.000000e-02	0.0	5.100000e-01	2.000000e-02	0.0	5.200000e-01	2.000000e-02	0.0	5.300000e-01	2.000000e-02	0.0	5.400000e-01	2.000000e-02	0.0	5.500000e-01	2.000000e-02	0.0	5.600000e-01	2.000000e-02	0.0	5.700000e-01	2.000000e-02	0.0	5.800000e-01	2.000000e-02	0.0	5.900000e-01	2.000000e-02	0.0	6.000000e-01	2.000000e-02	0.0	6.100000e-01	2.000000e-02	0.0	6.200000e-01	2.000000e-02	0.0	6.300000e-01	2.000000e-02	0.0	6.400000e-01	2.000000e-02	0.0	6.500000e-01	2.000000e-02	0.0	6.600000e-01	2.000000e-02	0.0	6.700000e-01	2.000000e-02	0.0	6.800000e-01	2.000000e-02	0.0	6.900000e-01	2.000000e-02	0.0	7.000000e-01	2.000000e-02	0.0	7.100000e-01	2.000000e-02	0.0	7.200000e-01	2.000000e-02	0.0	7.300000e-01	2.000000e-02	0.0	7.400000e-01	2.000000e-02	0.0	7.500000e-01	2.000000e-02	0.0	7.600000e-01	2.000000e-02	0.0	7.700000e-01	2.000000e-02	0.0	7.800000e-01	2.000000e-02	0.0	7.900000e-01	2.000000e-02	0.0	8.000000e-01	2.000000e-02	0.0	8.100000e-01	2.000000e-02	0.0	8.200000e-01	2.000000e-02	0.0	8.300000e-01	2.000000e-02	0.0	8.400000e-01	2.000000e-02	0.0	8.500000e-01	2.000000e-02	0.0	8.600000e-01	2.000000e-02	0.0	8.700000e-01	2.000000e-02	0.0	8.800000e-01	2.000000e-02	0.0	8.900000e-01	2.000000e-02	0.0	9.000000e-01	2.000000e-02	0.0	9.100000e-01	2.000000e-02	0.0	9.200000e-01	2.000000e-02	0.0	9.300000e-01	2.000000e-02	0.0	9.400000e-01	2.000000e-02	0.0	9.500000e-01	2.000000e-02	0.0	9.600000e-01	2.000000e-02	0.0	9.700000e-01	2.000000e-02	0.0	9.800000e-01	2.000000e-02	0.0	9.900000e-01	2.000000e-02	0.0	1.000000e+00	2.000000e-02	0.0	0.000000e+00	3.000000e-02	0.0	1.000000e-02	3.000000e-02	0.0	2.000000e-02	3.000000e-02	0.0	3.000000e-02	3.000000e-02	0.0	4.000000e-02	3.000000e-02	0.0	5.000000e-02	3.000000e-02	0.0	6.000000e-02	3.000000e-02	0.0	7.000000e-02	3.000000e-02	0.0	8.000000e-02	3.000000e-02	0.0	9.000000e-02	3.000000e-02	0.0	1.000000e-01	3.000000e-02	0.0	1.100000e-01	3.000000e-02	0.0	1.200000e-01	3.000000e-02	0.0	1.300000e-01	3.000000e-02	0.0	1.400000e-01	3.000000e-02	0.0	1.500000e-01	3.000000e-02	0.0	1.600000e-01	3.000000e-02	0.0	1.700000e-01	3.000000e-02	0.0	1.800000e-01	3.000000e-02	0.0	1.900000e-01	3.000000e-02	0.0	2.000000e-01	3.000000e-02	0.0	2.100000e-01	3.000000e-02	0.0	2.200000e-01	3.000000e-02	0.0	2.300000e-01	3.000000e-02	0.0	2.400000e-01	3.000000e-02	0.0	2.500000e-01	3.000000e-02	0.0	2.600000e-01	3.000000
[...]
POINT_DATA 10201

SCALARS Height double 1
LOOKUP_TABLE default
9.966012e-01	9.965979e-01	9.966062e-01	9.965828e-01	9.965602e-01	9.965281e-01	9.964856e-01	9.964348e-01	9.963805e-01	9.963196e-01	9.962522e-01	9.961778e-01	9.960927e-01	9.959949e-01	9.958816e-01	9.957515e-01	9.956029e-01	9.954326e-01	9.952345e-01	9.950070e-01	9.947445e-01	9.944334e-01	9.940586e-01	9.935752e-01	9.928945e-01	9.918831e-01	9.904068e-01	9.884418e-01	9.861756e-01	9.840173e-01	9.824031e-01	9.814953e-01	9.812404e-01	9.816249e-01	9.834471e-01	9.871705e-01	9.926560e-01	9.994932e-01	1.007165e+00	1.015022e+00	1.022202e+00	1.027763e+00	1.031175e+00	1.032459e+00	1.031940e+00	1.027713e+00	1.018542e+00	1.008354e+00	1.001699e+00	9.987757e-01	9.977805e-01	9.974827e-01	9.973890e-01	9.973405e-01	9.972858e-01	9.971994e-01	9.970686e-01	9.968954e-01	9.966867e-01	9.964479e-01	9.961803e-01	9.958786e-01	9.955244e-01	9.950755e-01	9.944536e-01	9.935329e-01	9.921634e-01	9.902747e-01	9.880082e-01	9.857611e-01	9.840013e-01	9.829454e-01	9.825675e-01	9.827729e-01	9.842761e-01	9.877059e-01	9.930229e-01	9.998607e-01	1.007672e+00	1.015769e+00	1.023259e+00	1.029175e+00	1.032917e+00	1.034450e+00	1.034174e+00	1.030406e+00	1.021501e+00	1.011126e+00	1.004256e+00	1.001303e+00	1.000350e+00	1.000087e+00	1.000021e+00	1.000005e+00	1.000001e+00	1.000000e+00	1.000000e+00	1.000000e+00	1.000000e+00	1.000000e+00	1.000000e+00	9.965979e-01	9.965869e-01	9.965970e-01	9.965729e-01	9.965489e-01	9.965156e-01	9.964733e-01	9.964228e-01	9.963671e-01	9.963042e-01	9.962343e-01	9.961571e-01	9.960693e-01	9.959686e-01	9.958524e-01	9.957192e-01	9.955670e-01	9.953933e-01	9.951891e-01	9.949569e-01	9.946903e-01	9.943771e-01	9.939991e-01	9.935073e-01	9.928130e-01	9.917875e-01	9.903003e-01	9.883270e-01	9.860536e-01	9.838573e-01	9.821754e-01	9.813692e-01	9.812757e-01	9.816801e-01	9.834733e-01	9.872145e-01	9.927359e-01	9.996234e-01	1.007326e+00	1.015197e+00	1.022454e+00	1.028261e+00	1.031644e+00	1.032418e+00	1.031854e+00	1.027902e+00	1.018932e+00	1.008267e+00	1.001237e+00	9.984410e-01	9.976351e-01	9.974260e-01	9.973593e-01	9.973176e-01	9.972649e-01	9.971791e-01	9.970476e-01	9.968723e-01	9.966610e-01	9.964196e-01	9.961488e-01	9.958425e-01	9.954826e-01	9.950250e-01	9.943897e-01	9.934524e-01	9.920689e-01	9.901683e-01	9.878913e-01	9.856059e-01	9.837672e-01	9.827763e-01	9.825782e-01	9.828236e-01	9.843068e-01	9.877473e-01	9.930993e-01	9.999827e-01	1.007826e+00	1.015940e+00	1.023499e+00	1.029659e+00	1.033443e+00	1.034462e+00	1.034076e+00	1.030578e+00	1.021936e+00	1.011076e+00	1.003773e+00	1.000957e+00	1.000212e+00	1.000046e+00	1.000010e+00	1.000002e+00	1.000001e+00	1.000000e+00	1.000000e+00	1.000000e+00	1.000000e+00	1.000000e+00	1.000000e+00	9.966062e-01	9.965970e-01	9.966093e-01	9.965831e-01	9.965583e-01	9.965242e-01	9.964808e-01	9.964284e-01	9.963716e-01	9.963080e-01	9.962375e-01	9.961594e-01	9.960705e-01	9.959692e-01	9.958533e-01	9.957205e-01	9.955684e-01	9.953950e-01	9.951907e-01	9.949592e-01	9.946920e-01	9.943722e-01	9.939784e-01	9.934567e-01	9.927208e-01	9.916547e-01	9.901658e-01	9.882495e-01	9.860696e-01	9.839389e-01	9.823699e-01	9.817562e-01	9.816907e-01	9.821334e-01	9.838998e-01	9.875779e-01	9.930383e-01	9.997600e-01	1.007258e+00	1.014968e+00	1.022253e+00	1.028078e+00	1.031018e+00	1.031585e+00	1.030998e+00	1.027422e+00	1.019148e+00	1.008823e+00	1.001603e+00	9.985626e-01	9.976661e-01	9.974325e-01	9.973582e-01	9.973141e-01	9.972615e-01	9.971775e-01	9.970481e-01	9.968742e-01	9.966635e-01	9.964219e-01	9.961491e-01	9.958366e-01	9.954640e-01	9.949857e-01	9.943167e-01	9.933395e-01	9.919401e-01	9.900781e-01	9.878839e-01	9.856628e-01	9.839174e-01	9.831281e-01	9.829999e-01	9.832809e-01	9.847728e-01	9.881506e-01	9.934489e-01	1.000154e+00	1.007771e+00	1.015700e+00	1.023270e+00	1.029488e+00	1.032874e+00	1.033610e+00	1.033182e+00	1.030030e+00	1.022105e+00	1.011674e+00	1.004158e+00	1.001045e+00	1.000209e+00	1.000037e+00	1.000007e+00	1.000001e+00	1.000000e+00	1.000000e+00	1.000000e+00	1.000000e+00	1.000000e+00	1.000000e+00	1.000000e+00	9.965828e-01	9.965729e-01	9.965831e-01	9.965576e-01	9.965327e-01	9.964993e-01	9.964572e-01	9.964058e-01	9.963498e-01	9.962871e-01	9.962169e-01	9.961382e-01	9.960481e-01	9.959453e-01	9.958281e-01	9.956936e-01	9.955386e-01	9.953625e-01	9.951545e-01	9.949199e-01	9.946475e-01	9.943146e-01	9.938941e-01	9.933281e-01	9.925272e-01	9.913867e-01	9.898518e-01	9.879505e-01	9.858256e-01	9.838401e-01	9.825677e-01	9.821419e-01	9.821371e-01	9.826943e-01	9.846005e-01	9.883164e-01	9.936985e-01	1.000251e+00	1.007536e+00	1.015154e+00	1.022470e+00	1.027982e+00	1.030355e+00	1.030682e+00	1.030018e+00	1.026511e+00	1.018743e+00	1.009139e+00	1.002105e+00	9.988444e-01	9.977523e-01	9.974400e-01	9.973406e-01	9.972870e-01	9.972303e-01	9.971452e-01	9.970160e-01	9.968417e-01	9.966295e-01	9.963854e-01	9.961076e-01	9.957843e-01	9.953892e-01	9.948735e-01	9.941466e-01	9.930971e-01	9.916386e-01	9.897717e-01	9.876130e-01	9.855042e-01	9.840446e-01	9.834959e-01	9.834281e-01	9.838269e-01	9.854849e-01	9.889485e-01	9.941695e-01	1.000701e+00	1.008082e+00	1.015879e+00	1.023493e+00	1.029471e+00	1.032238e+00	1.032722e+00	1.032208e+00	1.029100e+00	1.021694e+00	1.012023e+00	1.004668e+00	1.001301e+00	1.000282e+00	1.000052e+00	1.000009e+00	1.000001e+00	1.000000e+00	1.000000e+00	1.000000e+00	1.000000e+00	1.000000e+00	1.000000e+00	1.000000e+00	9.965602e-01	9.965489e-01	9.965583e-01	9.965327e-01	9.965068e-01	9.964727e-01	9.964307e-01	9.963789e-01	9.963216e-01	9.962580e-01	9.961863e-01	9.961055e-01	9.960131e-01	9.959080e-01	9.957888e-01	9.956523e-01	9.954944e-01	9.953141e-01	9.951036e-01	9.948649e-01	9.945838e-01	9.942313e-01	9.937726e-01	9.931440e-01	9.922555e-01	9.910305e-01	9.894343e-01	9.875307e-01	9.855096e-01	9.838239e-01	9.829165e-01	9.826718e-01	9.827413e-01	9.834460e-01	9.855345e-01	9.893395e-01	9.946041e-01	1.000900e+00	1.007943e+00	1.015495e+00	1.022659e+00	1.027547e+00	1.029376e+00	1.029561e+00	1.028781e+00	1.025266e+00	1.018074e+00	1.009432e+00	1.002801e+00	9.993073e-01	9.979272e-01	9.974749e-01	9.973269e-01	9.972559e-01	9.971913e-01	9.971035e-01	9.969746e-01	9.968003e-01	9.965862e-01	9.963382e-01	9.960525e-01	9.957135e-01	9.952864e-01	9.947101e-01	9.939038e-01	9.927672e-01	9.912362e-01	9.893417e-01	9.872501e-01	9.854116e-01	9.843525e-01	9.840051e-01	9.840199e-01	9.845702e-01	9.864291e-01	9.900253e-01	9.951696e-01	1.001446e+00	1.008531e+00	1.016230e+00	1.023724e+00	1.029116e+00	1.031311e+00	1.031579e+00	1.030986e+00	1.027846e+00	1.021003e+00	1.012314e+00	1.005381e+00	1.001747e+00	1.000431e+00	1.000085e+00	1.000014e+00	1.000002e+00	1.000000e+00	1.000000e+00	1.000000e+00	1.000000e+00	1.000000e+00	1.000000e+00	1.000000e+00	9.965281e-01	9.965156e-01	9.965242e-01	9.964993e-01	9.964727e-01	9.964382e-01	9.963968e-01	9.963452e-01	9.962869e-01	9.962220e-01	9.961484e-01	9.960650e-01	9.959699e-01	9.958617e-01	9.957390e-01	9.955985e-01	9.954362e-01	9.952507e-01	9.950362e-01	9.947904e-01	9.944953e-01	9.941158e-01	9.936037e-01	9.928856e-01	9.918872e-01	9.905581e-01	9.888986e-01	9.870038e-01	9.851935e-01	9.839276e-01	9.833751e-01	9.833100e-01	9.834839e-01	9.844164e-01	9.867418e-01	9.906273e-01	9.957342e-01	1.001739e+00	1.008552e+00	1.015962e+00	1.022717e+00	1.026884e+00	1.028172e+00	1.028240e+00	1.027290e+00	1.023723e+00	1.017172e+00	1.009661e+00	1.003617e+00	9.999309e-01	9.981885e-01	9.975341e-01	9.973118e-01	9.972150e-01	9.971393e-01	9.970472e-01	9.969179e-01	9.967440e-01	9.965280e-01	9.962740e-01	9.959774e-01	9.956153e-01	9.951401e-01	9.944833e-01	9.935599e-01	9.923044e-01	9.906920e-01	9.887827e-01	9.868650e-01	9.854379e-01	9.847603e-01	9.846368e-01	9.847440e-01	9.855227e-01	9.876451e-01	9.913698e-01	9.964016e-01	1.002374e+00	1.009196e+00	1.016738e+00	1.023862e+00	1.028511e+00	1.030124e+00	1.030263e+00	1.029511e+00	1.026318e+00	1.020073e+00	1.012522e+00	1.006222e+00	1.002375e+00	1.000675e+00	1.000144e+00	1.000025e+00	1.000004e+00	1.000001e+00	1.000000e+00	1.000000e+00	1.000000e+00	1.000000e+00	1.000000e+00	1.000000e+00	9.964856e-01	9.964733e-01	9.964808e-01	9.964572e-01	9.964307e-01	9.963968e-01	9.963567e-01	9.963061e-01	9.962468e-01	9.961801e-01	9.961040e-01	9.960176e-01	9.959193e-01	9.958069e-01	9.956786e-01	9.955314e-01	9.953623e-01	9.951701e-01	9.949501e-01	9.946931e-01	9.943784e-01	9.939543e-01	9.933649e-01	9.925376e-01	9.914053e-01	9.899478e-01	9.882200e-01	9.864257e-01	9.849670e-01	9.841898e-01	9.839822e-01	9.840288e-01	9.843911e-01	9.856261e-01	9.882090e-01	9.921377e-01	9.970593e-01	1.002769e+00	1.009346e+00	1.016438e+00	1.022525e+00	1.025918e+00	1.026765e+00	1.026718e+00	1.025558e+00	1.021982e+00	1.016166e+00	1.009854e+00	1.004495e+00	1.000692e+00	9.985462e-01	9.976272e-01	9.973001e-01	9.971669e-01	9.970767e-01	9.969779e-01	9.968464e-01	9.966718e-01	9.964533e-01	9.961916e-01	9.958774e-01	9.954769e-01	9.949362e-01	9.941749e-01	9.931167e-01	9.917185e-01	9.900089e-01	9.881528e-01	9.865511e-01	9.856377e-01	9.853346e-01	9.853463e-01	9.856284e-01	9.867152e-01	9.891285e-01	9.929473e-01	9.978294e-01	1.003510e+00	1.010066e+00	1.017287e+00	1.023776e+00	1.027635e+00	1.028725e+00	1.028747e+00	1.027804e+00	1.024583e+00	1.019014e+00	1.012684e+00	1.007124e+00	1.003152e+00	1.001019e+00	1.000237e+00	1.000042e+00	1.000006e+00	1.000001e+00	1.000000e+00	1.000000e+00	1.000000e+00	1.000000e+00	1.000000e+00	1.000000e+00	9.964348e-01	9.964228e-01	9.964284e-01	9.964058e-01	9.963789e-01	9.963452e-01	9.963061e-01	9.962566e-01	9.961967e-01	9.961291e-01	9.960514e-01	9.959626e-01	9.958615e-01	9.957449e-01	9.956101e-01	9.954546e-01	9.952757e-01	9.950734e-01	9.948469e-01	9.945719e-01	9.942234e-01	9.937376e-01	9.930499e-01	9.920818e-01	9.907920e-01	9.891987e-01	9.874404e-01	9.858887e-01	9.849582e-01	9.846244e-01	9.846631e-01	9.848477e-01	9.855067e-01	9.871040e-01	9.899186e-01	9.938287e-01	9.985580e-01	1.004018e+00	1.010260e+00	1.016799e+00	1.022046e+00	1.024639e+00	1.025150e+00	1.024983e+00	1.023610e+00	1.020125e+00	1.015152e+00	1.010032e+00	1.005382e+00	1.001538e+00	9.989858e-01	9.977550e-01	9.972930e-01	9.971134e-01	9.970065e-01	9.969000e-01	9.967649e-01	9.965874e-01	9.963649e-01	9.960920e-01	9.957478e-01	9.952943e-01	9.946581e-01	9.937591e-01	9.925354e-01	9.909818e-01	9.892053e-01	9.875388e-01	9.864408e-01	9.860069e-01	9.860058e-01	9.861428e-01	9.867127e-01	9.881783e-01	9.908699e-01	9.947181e-01	9.994322e-01	1.004868e+00	1.011088e+00	1.017753e+00	1.023388e+00	1.026429e+00	1.027117e+00	1.027026e+00	1.025891e+00	1.022726e+00	1.017943e+00	1.012821e+00	1.008036e+00	1.004032e+00	1.001459e+00	1.000366e+00	1.000068e+00	1.000010e+00	1.000001e+00	1.000000e+00	1.000000e+00	1.000000e+00	1.000000e+00	1.000000e+00	1.000000e+00	9.963805e-01	9.963671e-01	9.963716e-01	9.963498e-01	9.963216e-01	9.962869e-01	9.962468e-01	9.961967e-01	9.961355e-01	9.960665e-01	9.959869e-01	9.958948e-01	9.957894e-01	9.956676e-01	9.955260e-01	9.953617e-01	9.951740e-01	9.949636e-01	9.947229e-01	9.944220e-01	9.940203e-01	9.934491e-01	9.926253e-01	9.914860e-01	9.900114e-01	9.882926e-01	9.866557e-01	9.855722e-01	9.851856e-01	9.852088e-01	9.853807e-01	9.858365e-01	9.868834e-01	9.888504e-01	9.918370e-01	9.956750e-01	1.000211e+00	1.005436e+00	1.011213e+00	1.016917e+00	1.021232e+00	1.023078e+00	1.023331e+00	1.023033e+00	1.021499e+00	1.018266e+00	1.014228e+00	1.010219e+00	1.006243e+00	1.002416e+00	9.994808e-01	9.979056e-01	9.972845e-01	9.970490e-01	9.969217e-01	9.968085e-01	9.966701e-01	9.964893e-01	9.962593e-01	9.959687e-01	9.955858e-01	9.950511e-01	9.942865e-01	9.932128e-01	9.917912e-01	9.900852e-01	9.883606e-01	9.871046e-01	9.866124e-01	9.865697e-01	9.866985e-01	9.870963e-01	9.880527e-01	9.899176e-01	9.928364e-01	9.966552e-01	1.001190e+00	1.006399e+00	1.012171e+00	1.018005e+00	1.022691e+00	1.024928e+00	1.025316e+00	1.025106e+00	1.023816e+00	1.020853e+00	1.016953e+00	1.012965e+00	1.008922e+00	1.004962e+00	1.001976e+00	1.000533e+00	1.000103e+00	1.000016e+00	1.000002e+00	1.000000e+00	1.000000e+00	1.000000e+00	1.000000e+00	1.000000e+00	1.000000e+00	9.963196e-01	9.963042e-01	9.963080e-01	9.962871e-01	9.962580e-01	9.962220e-01	9.961801e-01	9.961291e-01	9.960665e-01	9.959959e-01	9.959134e-01	9.958162e-01	9.957035e-01	9.955727e-01	9.954220e-01	9.952476e-01	9.950500e-01	9.948278e-01	9.945649e-01	9.942218e-01	9.937483e-01	9.930510e-01	9.920557e-01	9.907042e-01	9.890319e-01	9.872994e-01	9.860682e-01	9.856313e-01	9.856178e-01	9.858108e-01	9.862388e-01	9.870687e-01	9.885455e-01	9.908425e-01	9.939269e-01	9.976614e-01	1.001999e+00	1.006921e+00	1.012090e+00	1.016710e+00	1.019965e+00	1.021236e+00	1.021302e+00	1.020885e+00	1.019296e+00	1.016523e+00	1.013468e+00	1.010442e+00	1.007064e+00	1.003286e+00	1.000006e+00	9.980794e-01	9.972792e-01	9.969758e-01	9.968219e-01	9.966959e-01	9.965528e-01	9.963691e-01	9.961284e-01	9.958071e-01	9.953603e-01	9.947149e-01	9.937811e-01	9.924883e-01	9.908478e-01	9.890549e-01	9.876536e-01	9.870868e-01	9.869996e-01	9.871456e-01	9.875220e-01	9.882840e-01	9.896781e-01	9.919141e-01	9.949892e-01	9.987427e-01	1.003086e+00	1.008007e+00	1.013204e+00	1.017963e+00	1.021517e+00	1.023139e+00	1.023319e+00	1.023001e+00	1.021649e+00	1.019085e+00	1.016123e+00	1.013142e+00	1.009763e+00	1.005896e+00	1.002542e+00	1.000731e+00	1.000148e+00	1.000024e+00	1.000003e+00	1.000000e+00	1.000000e+00	1.000000e+00	1.000000e+00	1.000000e+00	1.000000e+00	9.962522e-01	9.962343e-01	9.962375e-01	9.962169e-01	9.961863e-01	9.961484e-01	9.961040e-01	9.960514e-01	9.959869e-01	9.959134e-01	9.958271e-01	9.957242e-01	9.956036e-01	9.954631e-01	9.953013e-01	9.951173e-01	9.949076e-01	9.946638e-01	9.943683e-01	9.939596e-01	9.933735e-01	9.925119e-01	9.912903e-01	9.896762e-01	9.878638e-01	9.864779e-01	9.859418e-01	9.858973e-01	9.860916e-01	9.865341e-01	9.873216e-01	9.885937e-01	9.904950e-01	9.930483e-01	9.961606e-01	9.997715e-01	1.003881e+00	1.008362e+00	1.012706e+00	1.016181e+00	1.018282e+00	1.019105e+00	1.019073e+00	1.018580e+00	1.017120e+00	1.015005e+00	1.012898e+00	1.010702e+00	1.007820e+00	1.004106e+00	1.000526e+00	9.982650e-01	9.972775e-01	9.968977e-01	9.967123e-01	9.965708e-01	9.964188e-01	9.962262e-01	9.959656e-01	9.955961e-01	9.950530e-01	9.942467e-01	9.930840e-01	9.915168e-01	9.896818e-01	9.881337e-01	9.874294e-01	9.873113e-01	9.874483e-01	9.878341e-01	9.885625e-01	9.897597e-01	9.915976e-01	9.941429e-01	9.973036e-01	1.000967e+00	1.005088e+00	1.009574e+00	1.014000e+00	1.017592e+00	1.019934e+00	1.021026e+00	1.021133e+00	1.020747e+00	1.019505e+00	1.017536e+00	1.015497e+00	1.013365e+00	1.010542e+00	1.006789e+00	1.003125e+00	1.000954e+00	1.000202e+00	1.000033e+00	1.000005e+00	1.000001e+00	1.000000e+00	1.000000e+00	1.000000e+00	1.000000e+00	1.000000e+00	9.961778e-01	9.961571e-01	9.961594e-01	9.961382e-01	9.961055e-01	9.960650e-01	9.960176e-01	9.959626e-01	9.958948e-01	9.958162e-01	9.957242e-01	9.956142e-01	9.954847e-01	9.953341e-01	9.951612e-01	9.949657e-01	9.947413e-01	9.944673e-01	9.941137e-01	9.936090e-01	9.928667e-01	9.917763e-01	9.902443e-01	9.883851e-01	9.868349e-01	9.861562e-01	9.860880e-01	9.862400e-01	9.866667e-01	9.874626e-01	9.886904e-01	9.904285e-01	9.927020e-01	9.954292e-01	9.985215e-01	1.001975e+00	1.005774e+00	1.009607e+00	1.012862e+00	1.015153e+00	1.016239e+00	1.016662e+00	1.016635e+00	1.016211e+00	1.015154e+00	1.013803e+00	1.012534e+00	1.010983e+00	1.008499e+00	1.004838e+00	1.001012e+00	9.984458e-01	9.972727e-01	9.968103e-01	9.965895e-01	9.964305e-01	9.962668e-01	9.960581e-01	9.957611e-01	9.953130e-01	9.946251e-01	9.935882e-01	9.921087e-01	9.902616e-01	9.885595e-01	9.876933e-01	9.875386e-01	9.876296e-01	9.879909e-01	9.887238e-01	9.898810e-01	9.915468e-01	9.937918e-01	9.965706e-01	9.997616e-01	1.003294e+00	1.007124e+00	1.010972e+00	1.014317e+00	1.016770e+00	1.018009e+00	1.018592e+00	1.018730e+00	1.018426e+00	1.017554e+00	1.016304e+00	1.015094e+00	1.013627e+00	1.011254e+00	1.007607e+00	1.003694e+00	1.001191e+00	1.000264e+00	1.000045e+00	1.000007e+00	1.000001e+00	1.000000e+00	1.000000e+00	1.000000e+00	1.000000e+00	1.000000e+00	9.960927e-01	9.960693e-01	9.960705e-01	9.960481e-01	9.960131e-01	9.959699e-01	9.959193e-01	9.958615e-01	9.957894e-01	9.957035e-01	9.956036e-01	9.954847e-01	9.953451e-01	9.951841e-01	9.950001e-01	9.947889e-01	9.945377e-01	9.942177e-01	9.937752e-01	9.931277e-01	9.921594e-01	9.907318e-01	9.888716e-01	9.871565e-01	9.863267e-01	9.862265e-01	9.863262e-01	9.866842e-01	9.874460e-01	9.886762e-01	9.903854e-01	9.925584e-01	9.951169e-01	9.979382e-01	1.000967e+00	1.004229e+00	1.007565e+00	1.010486e+00	1.012549e+00	1.013585e+00	1.013904e+00	1.013954e+00	1.014037e+00	1.013918e+00	1.013538e+00	1.012961e+00	1.012337e+00	1.011274e+00	1.009080e+00	1.005455e+00	1.001437e+00	9.986124e-01	9.972609e-01	9.967120e-01	9.964519e-01	9.962717e-01	9.960898e-01	9.958505e-01	9.954883e-01	9.949120e-01	9.939988e-01	9.926219e-01	9.907908e-01	9.889619e-01	9.879303e-01	9.877191e-01	9.877582e-01	9.880462e-01	9.887364e-01	9.898911e-01	9.915203e-01	9.936402e-01	9.962218e-01	9.991551e-01	1.002327e+00	1.005682e+00	1.009059e+00	1.012038e+00	1.014146e+00	1.015354e+00	1.015789e+00	1.015923e+00	1.016098e+00	1.016202e+00	1.015926e+00	1.015437e+00	1.014877e+00	1.013915e+00	1.011880e+00	1.008324e+00	1.004223e+00	1.001431e+00	1.000332e+00	1.000059e+00	1.000009e+00	1.000001e+00	1.000000e+00	1.000000e+00	1.000000e+00	1.000000e+00	1.000000e+00	9.959949e-01	9.959686e-01	9.959692e-01	9.959453e-01	9.959080e-01	9.958617e-01	9.958069e-01	9.957449e-01	9.956676e-01	9.955727e-01	9.954631e-01	9.953341e-01	9.951841e-01	9.950119e-01	9.948137e-01	9.945782e-01	9.942835e-01	9.938863e-01	9.933107e-01	9.924424e-01	9.911218e-01	9.892991e-01	9.874651e-01	9.864828e-01	9.863301e-01	9.863931e-01	9.866651e-01	9.873325e-01	9.885228e-01	9.902399e-01	9.924196e-01	9.949488e-01	9.976860e-01	1.000538e+00	1.003486e+00	1.006469e+00	1.009070e+00	1.010746e+00	1.011528e+00	1.011473e+00	1.011296e+00	1.011141e+00	1.011276e+00	1.011894e+00	1.012448e+00	1.012447e+00	1.012273e+00	1.011535e+00	1.009541e+00	1.005938e+00	1.001784e+00	9.987516e-01	9.972386e-01	9.966023e-01	9.962986e-01	9.960902e-01	9.958759e-01	9.955791e-01	9.951028e-01	9.943102e-01	9.930435e-01	9.912524e-01	9.893378e-01	9.881604e-01	9.878656e-01	9.878700e-01	9.880715e-01	9.886604e-01	9.897701e-01	9.914006e-01	9.935069e-01	9.960238e-01	9.988454e-01	1.001859e+00	1.004978e+00	1.008083e+00	1.010740e+00	1.012456e+00	1.013361e+00	1.013389e+00	1.013267e+00	1.013156e+00	1.013350e+00	1.014103e+00	1.014873e+00	1.014956e+00	1.014822e+00	1.014196e+00	1.012402e+00	1.008925e+00	1.004693e+00	1.001664e+00	1.000405e+00	1.000075e+00	1.000012e+00	1.000002e+00	1.000000e+00	1.000000e+00	1.000000e+00	1.000000e+00	1.000000e+00	9.958816e-01	9.958524e-01	9.958533e-01	9.958281e-01	9.957888e-01	9.957390e-01	9.956786e-01	9.956101e-01	9.955260e-01	9.954220e-01	9.953013e-01	9.951612e-01	9.950001e-01	9.948137e-01	9.945917e-01	9.943159e-01	9.939502e-01	9.934290e-01	9.926408e-01	9.914168e-01	9.896523e-01	9.877527e-01	9.866236e-01	9.863985e-01	9.864430e-01	9.866444e-01	9.871929e-01	9.882840e-01	9.899705e-01	9.921772e-01	9.947588e-01	9.975369e-01	1.000381e+00	1.003274e+00	1.006149e+00	1.008522e+00	1.009833e+00	1.010247e+00	1.009858e+00	1.008986e+00	1.008432e+00	1.008247e+00	1.008703e+00	1.010258e+00	1.011852e+00	1.012300e+00	1.012283e+00	1.011735e+00	1.009860e+00	1.006282e+00	1.002043e+00	9.988560e-01	9.972020e-01	9.964789e-01	9.961246e-01	9.958740e-01	9.956010e-01	9.951965e-01	9.945117e-01	9.933590e-01	9.916320e-01	9.896752e-01	9.883818e-01	9.879999e-01	9.879804e-01	9.881071e-01	9.885696e-01	9.895653e-01	9.911550e-01	9.932785e-01	9.958237e-01	9.986523e-01	1.001637e+00	1.004722e+00	1.007787e+00	1.010318e+00	1.011715e+00	1.012144e+00	1.011849e+00	1.011025e+00	1.010473e+00	1.010290e+00	1.010767e+00	1.012438e+00	1.014279e+00	1.014846e+00	1.014868e+00	1.014448e+00	1.012810e+00	1.009401e+00	1.005097e+00	1.001884e+00	1.000478e+00	1.000092e+00	1.000015e+00	1.000002e+00	1.000000e+00	1.000000e+00	1.000000e+00	1.000000e+00	1.000000e+00	9.957515e-01	9.957192e-01	9.957205e-01	9.956936e-01	9.956523e-01	9.955985e-01	9.955314e-01	9.954546e-01	9.953617e-01	9.952476e-01	9.951173e-01	9.949657e-01	9.947889e-01	9.945782e-01	9.943159e-01	9.939704e-01	9.934857e-01	9.927581e-01	9.916157