# vtk DataFile Version 3.0
vtk output
ASCII
DATASET STRUCTURED_GRID
DIMENSIONS 101 101 1
POINTS 10201 double
0.000000e+00	0.000000e+00	0.0	1.000000e-02	0.000000e+00	0.0	2.000000e-02	0.000000e+00	0.0	3.000000e-02	0.000000e+00	0.0	4.000000e-02	0.000000e+00	0.0	5.000000e-02	0.000000e+00	0.0	6.000000e-02	0.000000e+00	0.0	7.000000e-02	0.000000e+00	0.0	8.000000e-02	0.000000e+00	0.0	9.000000e-02	0.000000e+00	0.0	1.000000e-01	0.000000e+00	0.0	1.100000e-01	0.000000e+00	0.0	1.200000e-01	0.000000e+00	0.0	1.300000e-01	0.000000e+00	0.0	1.400000e-01	0.000000e+00	0.0	1.500000e-01	0.000000e+00	0.0	1.600000e-01	0.000000e+00	0.0	1.700000e-01	0.000000e+00	0.0	1.800000e-01	0.000000e+00	0.0	1.900000e-01	0.000000e+00	0.0	2.000000e-01	0.000000e+00	0.0	2.100000e-01	0.000000e+00	0.0	2.200000e-01	0.000000e+00	0.0	2.300000e-01	0.000000e+00	0.0	2.400000e-01	0.000000e+00	0.0	2.500000e-01	0.000000e+00	0.0	2.600000e-01	0.000000e+00	0.0	2.700000e-01	0.000000e+00	0.0	2.800000e-01	0.000000e+00	0.0	2.900000e-01	0.000000e+00	0.0	3.000000e-01	0.000000e+00	0.0	3.100000e-01	0.000000e+00	0.0	3.200000e-01	0.000000e+00	0.0	3.300000e-01	0.000000e+00	0.0	3.400000e-01	0.000000e+00	0.0	3.500000e-01	0.000000e+00	0.0	3.600000e-01	0.000000e+00	0.0	3.700000e-01	0.000000e+00	0.0	3.800000e-01	0.000000e+00	0.0	3.900000e-01	0.000000e+00	0.0	4.000000e-01	0.000000e+00	0.0	4.100000e-01	0.000000e+00	0.0	4.200000e-01	0.000000e+00	0.0	4.300000e-01	0.000000e+00	0.0	4.400000e-01	0.000000e+00	0.0	4.500000e-01	0.000000e+00	0.0	4.600000e-01	0.000000e+00	0.0	4.700000e-01	0.000000e+00	0.0	4.800000e-01	0.000000e+00	0.0	4.900000e-01	0.000000e+00	0.0	5.000000e-01	0.000000e+00	0.0	5.100000e-01	0.000000e+00	0.0	5.200000e-01	0.000000e+00	0.0	5.300000e-01	0.000000e+00	0.0	5.400000e-01	0.000000e+00	0.0	5.500000e-01	0.000000e+00	0.0	5.600000e-01	0.000000e+00	0.0	5.700000e-01	0.000000e+00	0.0	5.800000e-01	0.000000e+00	0.0	5.900000e-01	0.000000e+00	0.0	6.000000e-01	0.000000e+00	0.0	6.100000e-01	0.000000e+00	0.0	6.200000e-01	0.000000e+00	0.0	6.300000e-01	0.000000e+00	0.0	6.400000e-01	0.000000e+00	0.0	6.500000e-01	0.000000e+00	0.0	6.600000e-01	0.000000e+00	0.0	6.700000e-01	0.000000e+00	0.0	6.800000e-01	0.000000e+00	0.0	6.900000e-01	0.000000e+00	0.0	7.000000e-01	0.000000e+00	0.0	7.100000e-01	0.000000e+00	0.0	7.200000e-01	0.000000e+00	0.0	7.300000e-01	0.000000e+00	0.0	7.400000e-01	0.000000e+00	0.0	7.500000e-01	0.000000e+00	0.0	7.600000e-01	0.000000e+00	0.0	7.700000e-01	0.000000e+00	0.0	7.800000e-01	0.000000e+00	0.0	7.900000e-01	0.000000e+00	0.0	8.000000e-01	0.000000e+00	0.0	8.100000e-01	0.000000e+00	0.0	8.200000e-01	0.000000e+00	0.0	8.300000e-01	0.000000e+00	0.0	8.400000e-01	0.000000e+00	0.0	8.500000e-01	0.000000e+00	0.0	8.600000e-01	0.000000e+00	0.0	8.700000e-01	0.000000e+00	0.0	8.800000e-01	0.000000e+00	0.0	8.900000e-01	0.000000e+00	0.0	9.000000e-01	0.000000e+00	0.0	9.100000e-01	0.000000e+00	0.0	9.200000e-01	0.000000e+00	0.0	9.300000e-01	0.000000e+00	0.0	9.400000e-01	0.000000e+00	0.0	9.500000e-01	0.000000e+00	0.0	9.600000e-01	0.000000e+00	0.0	9.700000e-01	0.000000e+00	0.0	9.800000e-01	0.000000e+00	0.0	9.900000e-01	0.000000e+00	0.0	1.000000e+00	0.000000e+00	0.0	0.000000e+00	1.000000e-02	0.0	1.000000e-02	1.000000e-02	0.0	2.000000e-02	1.000000e-02	0.0	3.000000e-02	1.000000e-02	0.0	4.000000e-02	1.000000e-02	0.0	5.000000e-02	1.000000e-02	0.0	6.000000e-02	1.000000e-02	0.0	7.000000e-02	1.000000e-02	0.0	8.000000e-02	1.000000e-02	0.0	9.000000e-02	1.000000e-02	0.0	1.000000e-01	1.000000e-02	0.0	1.100000e-01	1.000000e-02	0.0	1.200000e-01	1.000000e-02	0.0	1.300000e-01	1.000000e-02	0.0	1.400000e-01	1.000000e-02	0.0	1.500000e-01	1.000000e-02	0.0	1.600000e-01	1.000000e-02	0.0	1.700000e-01	1.000000e-02	0.0	1.800000e-01	1.000000e-02	0.0	1.900000e-01	1.000000e-02	0.0	2.000000e-01	1.000000e-02	0.0	2.100000e-01	1.000000e-02	0.0	2.200000e-01	1.000000e-02	0.0	2.300000e-01	1.000000e-02	0.0	2.400000e-01	1.000000e-02	0.0	2.500000e-01	1.000000e-02	0.0	2.600000e-01	1.000000e-02	0.0	2.700000e-01	1.000000e-02	0.0	2.800000e-01	1.000000e-02	0.0	2.900000e-01	1.000000e-02	0.0	3.000000e-01	1.000000e-02	0.0	3.100000e-01	1.000000e-02	0.0	3.200000e-01	1.000000e-02	0.0	3.300000e-01	1.000000e-02	0.0	3.400000e-01	1.000000e-02	0.0	3.500000e-01	1.000000e-02	0.0	3.600000e-01	1.000000e-02	0.0	3.700000e-01	1.000000e-02	0.0	3.800000e-01	1.000000e-02	0.0	3.900000e-01	1.000000e-02	0.0	4.000000e-01	1.000000e-02	0.0	4.100000e-01	1.000000e-02	0.0	4.200000e-01	1.000000e-02	0.0	4.300000e-01	1.000000e-02	0.0	4.400000e-01	1.000000e-02	0.0	4.500000e-01	1.000000e-02	0.0	4.600000e-01	1.000000e-02	0.0	4.700000e-01	1.000000e-02	0.0	4.800000e-01	1.000000e-02	0.0	4.900000e-01	1.000000e-02	0.0	5.000000e-01	1.000000e-02	0.0	5.100000e-01	1.000000e-02	0.0	5.200000e-01	1.000000e-02	0.0	5.300000e-01	1.000000e-02	0.0	5.400000e-01	1.000000e-02	0.0	5.500000e-01	1.000000e-02	0.0	5.600000e-01	1.000000e-02	0.0	5.700000e-01	1.000000e-02	0.0	5.800000e-01	1.000000e-02	0.0	5.900000e-01	1.000000e-02	0.0	6.000000e-01	1.000000e-02	0.0	6.100000e-01	1.000000e-02	0.0	6.200000e-01	1.000000e-02	0.0	6.300000e-01	1.000000e-02	0.0	6.400000e-01	1.000000e-02	0.0	6.500000e-01	1.000000e-02	0.0	6.600000e-01	1.000000e-02	0.0	6.700000e-01	1.000000e-02	0.0	6.800000e-01	1.000000e-02	0.0	6.900000e-01	1.000000e-02	0.0	7.000000e-01	1.000000e-02	0.0	7.100000e-01	1.000000e-02	0.0	7.200000e-01	1.000000e-02	0.0	7.300000e-01	1.000000e-02	0.0	7.400000e-01	1.000000e-02	0.0	7.500000e-01	1.000000e-02	0.0	7.600000e-01	1.000000e-02	0.0	7.700000e-01	1.000000e-02	0.0	7.800000e-01	1.000000e-02	0.0	7.900000e-01	1.000000e-02	0.0	8.000000e-01	1.000000e-02	0.0	8.100000e-01	1.000000e-02	0.0	8.200000e-01	1.000000e-02	0.0	8.300000e-01	1.000000e-02	0.0	8.400000e-01	1.000000e-02	0.0	8.500000e-01	1.000000e-02	0.0	8.600000e-01	1.000000e-02	0.0	8.700000e-01	1.000000e-02	0.0	8.800000e-01	1.000000e-02	0.0	8.900000e-01	1.000000e-02	0.0	9.000000e-01	1.000000e-02	0.0	9.100000e-01	1.000000e-02	0.0	9.200000e-01	1.000000e-02	0.0	9.300000e-01	1.000000e-02	0.0	9.400000e-01	1.000000e-02	0.0	9.500000e-01	1.000000e-02	0.0	9.600000e-01	1.000000e-02	0.0	9.700000e-01	1.000000e-02	0.0	9.800000e-01	1.000000e-02	0.0	9.900000e-01	1.000000e-02	0.0	1.000000e+00	1.000000e-02	0.0	0.000000e+00	2.000000e-02	0.0	1.000000e-02	2.000000e-02	0.0	2.000000e-02	2.000000e-02	0.0	3.000000e-02	2.000000e-02	0.0	4.000000e-02	2.000000e-02	0.0	5.000000e-02	2.000000e-02	0.0	6.000000e-02	2.000000e-02	0.0	7.000000e-02	2.000000e-02	0.0	8.000000e-02	2.000000e-02	0.0	9.000000e-02	2.000000e-02	0.0	1.000000e-01	2.000000e-02	0.0	1.100000e-01	2.000000e-02	0.0	1.200000e-01	2.000000e-02	0.0	1.300000e-01	2.000000e-02	0.0	1.400000e-01	2.000000e-02	0.0	1.500000e-01	2.000000e-02	0.0	1.600000e-01	2.000000e-02	0.0	1.700000e-01	2.000000e-02	0.0	1.800000e-01	2.000000e-02	0.0	1.900000e-01	2.000000e-02	0.0	2.000000e-01	2.000000e-02	0.0	2.100000e-01	2.000000e-02	0.0	2.200000e-01	2.000000e-02	0.0	2.300000e-01	2.000000e-02	0.0	2.400000e-01	2.000000e-02	0.0	2.500000e-01	2.000000e-02	0.0	2.600000e-01	2.000000e-02	0.0	2.700000e-01	2.000000e-02	0.0	2.800000e-01	2.000000e-02	0.0	2.900000e-01	2.000000e-02	0.0	3.000000e-01	2.000000e-02	0.0	3.100000e-01	2.000000e-02	0.0	3.200000e-01	2.000000e-02	0.0	3.300000e-01	2.000000e-02	0.0	3.400000e-01	2.000000e-02	0.0	3.500000e-01	2.000000e-02	0.0	3.600000e-01	2.000000e-02	0.0	3.700000e-01	2.000000e-02	0.0	3.800000e-01	2.000000e-02	0.0	3.900000e-01	2.000000e-02	0.0	4.000000e-01	2.000000e-02	0.0	4.100000e-01	2.000000e-02	0.0	4.200000e-01	2.000000e-02	0.0	4.300000e-01	2.000000e-02	0.0	4.400000e-01	2.000000e-02	0.0	4.500000e-01	2.000000e-02	0.0	4.600000e-01	2.000000e-02	0.0	4.700000e-01	2.000000e-02	0.0	4.800000e-01	2.000000e-02	0.0	4.900000e-01	2.000000e-02	0.0	5.000000e-01	2.000000e-02	0.0	5.100000e-01	2.000000e-02	0.0	5.200000e-01	2.000000e-02	0.0	5.300000e-01	2.000000e-02	0.0	5.400000e-01	2.000000e-02	0.0	5.500000e-01	2.000000e-02	0.0	5.600000e-01	2.000000e-02	0.0	5.700000e-01	2.000000e-02	0.0	5.800000e-01	2.000000e-02	0.0	5.900000e-01	2.000000e-02	0.0	6.000000e-01	2.000000e-02	0.0	6.100000e-01	2.000000e-02	0.0	6.200000e-01	2.000000e-02	0.0	6.300000e-01	2.000000e-02	0.0	6.400000e-01	2.000000e-02	0.0	6.500000e-01	2.000000e-02	0.0	6.600000e-01	2.000000e-02	0.0	6.700000e-01	2.000000e-02	0.0	6.800000e-01	2.000000e-02	0.0	6.900000e-01	2.000000e-02	0.0	7.000000e-01	2.000000e-02	0.0	7.100000e-01	2.000000e-02	0.0	7.200000e-01	2.000000e-02	0.0	7.300000e-01	2.000000e-02	0.0	7.400000e-01	2.000000e-02	0.0	7.500000e-01	2.000000e-02	0.0	7.600000e-01	2.000000e-02	0.0	7.700000e-01	2.000000e-02	0.0	7.800000e-01	2.000000e-02	0.0	7.900000e-01	2.000000e-02	0.0	8.000000e-01	2.000000e-02	0.0	8.100000e-01	2.000000e-02	0.0	8.200000e-01	2.000000e-02	0.0	8.300000e-01	2.000000e-02	0.0	8.400000e-01	2.000000e-02	0.0	8.500000e-01	2.000000e-02	0.0	8.600000e-01	2.000000e-02	0.0	8.700000e-01	2.000000e-02	0.0	8.800000e-01	2.000000e-02	0.0	8.900000e-01	2.000000e-02	0.0	9.000000e-01	2.000000e-02	0.0	9.100000e-01	2.000000e-02	0.0	9.200000e-01	2.000000e-02	0.0	9.300000e-01	2.000000e-02	0.0	9.400000e-01	2.000000e-02	0.0	9.500000e-01	2.000000e-02	0.0	9.600000e-01	2.000000e-02	0.0	9.700000e-01	2.000000e-02	0.0	9.800000e-01	2.000000e-02	0.0	9.900000e-01	2.000000e-02	0.0	1.000000e+00	2.000000e-02	0.0	0.000000e+00	3.000000e-02	0.0	1.000000e-02	3.000000e-02	0.0	2.000000e-02	3.000000e-02	0.0	3.000000e-02	3.000000e-02	0.0	4.000000e-02	3.000000e-02	0.0	5.000000e-02	3.000000e-02	0.0	6.000000e-02	3.000000e-02	0.0	7.000000e-02	3.000000e-02	0.0	8.000000e-02	3.000000e-02	0.0	9.000000e-02	3.000000e-02	0.0	1.000000e-01	3.000000e-02	0.0	1.100000e-01	3.000000e-02	0.0	1.200000e-01	3.000000e-02	0.0	1.300000e-01	3.000000e-02	0.0	1.400000e-01	3.000000e-02	0.0	1.500000e-01	3.000000e-02	0.0	1.600000e-01	3.000000e-02	0.0	1.700000e-01	3.000000e-02	0.0	1.800000e-01	3.000000e-02	0.0	1.900000e-01	3.000000e-02	0.0	2.000000e-01	3.000000e-02	0.0	2.100000e-01	3.000000e-02	0.0	2.200000e-01	3.000000e-02	0.0	2.300000e-01	3.000000e-02	0.0	2.400000e-01	3.000000e-02	0.0	2.500000e-01	3.000000e-02	0.0	2.600000e-01	3.000000
[...]
POINT_DATA 10201

SCALARS Height double 1
LOOKUP_TABLE default
9.979029e-01	9.979486e-01	9.979251e-01	9.979242e-01	9.979250e-01	9.979239e-01	9.979179e-01	9.979068e-01	9.978951e-01	9.978805e-01	9.978630e-01	9.978428e-01	9.978190e-01	9.977919e-01	9.977616e-01	9.977281e-01	9.976920e-01	9.976541e-01	9.976124e-01	9.975666e-01	9.975134e-01	9.974477e-01	9.973751e-01	9.972964e-01	9.972139e-01	9.971250e-01	9.970314e-01	9.969280e-01	9.968132e-01	9.966838e-01	9.965366e-01	9.963684e-01	9.961762e-01	9.959576e-01	9.957039e-01	9.953998e-01	9.950108e-01	9.944790e-01	9.937193e-01	9.926300e-01	9.911480e-01	9.893391e-01	9.874671e-01	9.859186e-01	9.849412e-01	9.845092e-01	9.844837e-01	9.851155e-01	9.871175e-01	9.907413e-01	9.957840e-01	1.001813e+00	1.008340e+00	1.014809e+00	1.020497e+00	1.024651e+00	1.026960e+00	1.027655e+00	1.027023e+00	1.023382e+00	1.015913e+00	1.007509e+00	1.001779e+00	9.991260e-01	9.981792e-01	9.978858e-01	9.977946e-01	9.977530e-01	9.977091e-01	9.976369e-01	9.975211e-01	9.973607e-01	9.971644e-01	9.969411e-01	9.966923e-01	9.964064e-01	9.960520e-01	9.955732e-01	9.948851e-01	9.938810e-01	9.924773e-01	9.907091e-01	9.888102e-01	9.871683e-01	9.860789e-01	9.855511e-01	9.854655e-01	9.859254e-01	9.876595e-01	9.910337e-01	9.959266e-01	1.001934e+00	1.008552e+00	1.015218e+00	1.021220e+00	1.025788e+00	1.028667e+00	1.030482e+00	1.032757e+00	1.034590e+00	1.038767e+00	9.979049e-01	9.979692e-01	9.979158e-01	9.979202e-01	9.979223e-01	9.979218e-01	9.979166e-01	9.979062e-01	9.978933e-01	9.978777e-01	9.978590e-01	9.978373e-01	9.978119e-01	9.977832e-01	9.977512e-01	9.977157e-01	9.976773e-01	9.976367e-01	9.975927e-01	9.975427e-01	9.974881e-01	9.974237e-01	9.973539e-01	9.972788e-01	9.971975e-01	9.971122e-01	9.970201e-01	9.969177e-01	9.968033e-01	9.966738e-01	9.965262e-01	9.963574e-01	9.961642e-01	9.959436e-01	9.956879e-01	9.953798e-01	9.949865e-01	9.944489e-01	9.936824e-01	9.925881e-01	9.911013e-01	9.892846e-01	9.873896e-01	9.857819e-01	9.847783e-01	9.844580e-01	9.844883e-01	9.851226e-01	9.870846e-01	9.907134e-01	9.957808e-01	1.001853e+00	1.008412e+00	1.014904e+00	1.020684e+00	1.025045e+00	1.027266e+00	1.027631e+00	1.027010e+00	1.023614e+00	1.016309e+00	1.007528e+00	1.001440e+00	9.988375e-01	9.980437e-01	9.978339e-01	9.977714e-01	9.977370e-01	9.976954e-01	9.976246e-01	9.975093e-01	9.973480e-01	9.971498e-01	9.969243e-01	9.966731e-01	9.963839e-01	9.960260e-01	9.955425e-01	9.948487e-01	9.938400e-01	9.924328e-01	9.906583e-01	9.887406e-01	9.870450e-01	9.859116e-01	9.854840e-01	9.854652e-01	9.859404e-01	9.876342e-01	9.910044e-01	9.959177e-01	1.001969e+00	1.008623e+00	1.015310e+00	1.021377e+00	1.026125e+00	1.028931e+00	1.030264e+00	1.032505e+00	1.034741e+00	1.039488e+00	9.979145e-01	9.979874e-01	9.979232e-01	9.979292e-01	9.979312e-01	9.979303e-01	9.979237e-01	9.979111e-01	9.978973e-01	9.978814e-01	9.978622e-01	9.978395e-01	9.978128e-01	9.977829e-01	9.977505e-01	9.977155e-01	9.976781e-01	9.976398e-01	9.975946e-01	9.975456e-01	9.974920e-01	9.974267e-01	9.973558e-01	9.972800e-01	9.971986e-01	9.971107e-01	9.970186e-01	9.969155e-01	9.968002e-01	9.966700e-01	9.965222e-01	9.963535e-01	9.961607e-01	9.959396e-01	9.956809e-01	9.953672e-01	9.949642e-01	9.944130e-01	9.936304e-01	9.925299e-01	9.910632e-01	9.892949e-01	9.874361e-01	9.858356e-01	9.849151e-01	9.846963e-01	9.847539e-01	9.854193e-01	9.873620e-01	9.909256e-01	9.959337e-01	1.001900e+00	1.008334e+00	1.014736e+00	1.020576e+00	1.024959e+00	1.026879e+00	1.027129e+00	1.026507e+00	1.023387e+00	1.016502e+00	1.007861e+00	1.001564e+00	9.988343e-01	9.980276e-01	9.978245e-01	9.977641e-01	9.977300e-01	9.976890e-01	9.976203e-01	9.975079e-01	9.973489e-01	9.971517e-01	9.969257e-01	9.966715e-01	9.963755e-01	9.960068e-01	9.955084e-01	9.947962e-01	9.937746e-01	9.923800e-01	9.906486e-01	9.887727e-01	9.870828e-01	9.860131e-01	9.857053e-01	9.857142e-01	9.862240e-01	9.879111e-01	9.912231e-01	9.960880e-01	1.002034e+00	1.008561e+00	1.015142e+00	1.021243e+00	1.026046e+00	1.028548e+00	1.029736e+00	1.032106e+00	1.034805e+00	1.039709e+00	9.979123e-01	9.979844e-01	9.979152e-01	9.979208e-01	9.979225e-01	9.979218e-01	9.979156e-01	9.979034e-01	9.978900e-01	9.978745e-01	9.978562e-01	9.978347e-01	9.978090e-01	9.977795e-01	9.977471e-01	9.977125e-01	9.976753e-01	9.976358e-01	9.975914e-01	9.975413e-01	9.974874e-01	9.974221e-01	9.973511e-01	9.972751e-01	9.971929e-01	9.971042e-01	9.970108e-01	9.969056e-01	9.967879e-01	9.966548e-01	9.965041e-01	9.963327e-01	9.961370e-01	9.959119e-01	9.956473e-01	9.953221e-01	9.948999e-01	9.943227e-01	9.935069e-01	9.923761e-01	9.909054e-01	9.891524e-01	9.873077e-01	9.857919e-01	9.850616e-01	9.849212e-01	9.850142e-01	9.857590e-01	9.877797e-01	9.913468e-01	9.962924e-01	1.002150e+00	1.008462e+00	1.014841e+00	1.020737e+00	1.024897e+00	1.026462e+00	1.026629e+00	1.025964e+00	1.022944e+00	1.016372e+00	1.008020e+00	1.001786e+00	9.989465e-01	9.980550e-01	9.978213e-01	9.977500e-01	9.977111e-01	9.976678e-01	9.975988e-01	9.974877e-01	9.973301e-01	9.971330e-01	9.969048e-01	9.966452e-01	9.963389e-01	9.959516e-01	9.954278e-01	9.946827e-01	9.936277e-01	9.922203e-01	9.905003e-01	9.886359e-01	9.870096e-01	9.861265e-01	9.859215e-01	9.859610e-01	9.865478e-01	9.883246e-01	9.916595e-01	9.964684e-01	1.002317e+00	1.008718e+00	1.015256e+00	1.021420e+00	1.026050e+00	1.028179e+00	1.029292e+00	1.031761e+00	1.034580e+00	1.039377e+00	9.979131e-01	9.979841e-01	9.979130e-01	9.979176e-01	9.979171e-01	9.979149e-01	9.979077e-01	9.978948e-01	9.978802e-01	9.978646e-01	9.978464e-01	9.978248e-01	9.977993e-01	9.977704e-01	9.977386e-01	9.977042e-01	9.976670e-01	9.976271e-01	9.975829e-01	9.975325e-01	9.974784e-01	9.974133e-01	9.973423e-01	9.972660e-01	9.971829e-01	9.970942e-01	9.969976e-01	9.968899e-01	9.967692e-01	9.966327e-01	9.964781e-01	9.963028e-01	9.961031e-01	9.958735e-01	9.956004e-01	9.952602e-01	9.948129e-01	9.941982e-01	9.933411e-01	9.921730e-01	9.906829e-01	9.889290e-01	9.871424e-01	9.858345e-01	9.853095e-01	9.852220e-01	9.853705e-01	9.862227e-01	9.883396e-01	9.919326e-01	9.967870e-01	1.002489e+00	1.008684e+00	1.015076e+00	1.020885e+00	1.024630e+00	1.025885e+00	1.025985e+00	1.025284e+00	1.022323e+00	1.016056e+00	1.008159e+00	1.002097e+00	9.991474e-01	9.981318e-01	9.978328e-01	9.977376e-01	9.976892e-01	9.976416e-01	9.975714e-01	9.974619e-01	9.973064e-01	9.971096e-01	9.968784e-01	9.966110e-01	9.962894e-01	9.958770e-01	9.953162e-01	9.945293e-01	9.934357e-01	9.919998e-01	9.902718e-01	9.884411e-01	9.869980e-01	9.863440e-01	9.862073e-01	9.862977e-01	9.869861e-01	9.888749e-01	9.922604e-01	9.970022e-01	1.002703e+00	1.008968e+00	1.015506e+00	1.021622e+00	1.025860e+00	1.027673e+00	1.028814e+00	1.031370e+00	1.034146e+00	1.038650e+00	9.979120e-01	9.979774e-01	9.979105e-01	9.979127e-01	9.979097e-01	9.979059e-01	9.978982e-01	9.978855e-01	9.978706e-01	9.978543e-01	9.978353e-01	9.978133e-01	9.977879e-01	9.977596e-01	9.977284e-01	9.976939e-01	9.976562e-01	9.976159e-01	9.975716e-01	9.975214e-01	9.974671e-01	9.974020e-01	9.973309e-01	9.972542e-01	9.971700e-01	9.970807e-01	9.969814e-01	9.968711e-01	9.967471e-01	9.966067e-01	9.964472e-01	9.962668e-01	9.960619e-01	9.958248e-01	9.955402e-01	9.951805e-01	9.946998e-01	9.940364e-01	9.931245e-01	9.919136e-01	9.903834e-01	9.886244e-01	9.869808e-01	9.859546e-01	9.856104e-01	9.855804e-01	9.858119e-01	9.868068e-01	9.890516e-01	9.926653e-01	9.974024e-01	1.002941e+00	1.009052e+00	1.015417e+00	1.020966e+00	1.024228e+00	1.025186e+00	1.025235e+00	1.024468e+00	1.021510e+00	1.015566e+00	1.008245e+00	1.002485e+00	9.994406e-01	9.982486e-01	9.978566e-01	9.977249e-01	9.976625e-01	9.976084e-01	9.975363e-01	9.974277e-01	9.972743e-01	9.970778e-01	9.968425e-01	9.965640e-01	9.962221e-01	9.957778e-01	9.951684e-01	9.943238e-01	9.931829e-01	9.917104e-01	9.899584e-01	9.882306e-01	9.870572e-01	9.866117e-01	9.865507e-01	9.867096e-01	9.875446e-01	9.895820e-01	9.930222e-01	9.976713e-01	1.003200e+00	1.009363e+00	1.015880e+00	1.021779e+00	1.025546e+00	1.027082e+00	1.028326e+00	1.030929e+00	1.033494e+00	1.037557e+00	9.979084e-01	9.979641e-01	9.979065e-01	9.979054e-01	9.979002e-01	9.978951e-01	9.978874e-01	9.978751e-01	9.978597e-01	9.978427e-01	9.978233e-01	9.978011e-01	9.977762e-01	9.977482e-01	9.977166e-01	9.976813e-01	9.976423e-01	9.976012e-01	9.975573e-01	9.975062e-01	9.974517e-01	9.973865e-01	9.973151e-01	9.972376e-01	9.971520e-01	9.970613e-01	9.969597e-01	9.968461e-01	9.967184e-01	9.965734e-01	9.964088e-01	9.962225e-01	9.960114e-01	9.957643e-01	9.954647e-01	9.950777e-01	9.945534e-01	9.938298e-01	9.928483e-01	9.915683e-01	9.899910e-01	9.882770e-01	9.868676e-01	9.861555e-01	9.859774e-01	9.860011e-01	9.863492e-01	9.875242e-01	9.899137e-01	9.935352e-01	9.981371e-01	1.003514e+00	1.009558e+00	1.015793e+00	1.020929e+00	1.023687e+00	1.024380e+00	1.024370e+00	1.023513e+00	1.020535e+00	1.014955e+00	1.008298e+00	1.002931e+00	9.998127e-01	9.984143e-01	9.978948e-01	9.977123e-01	9.976310e-01	9.975692e-01	9.974942e-01	9.973861e-01	9.972341e-01	9.970373e-01	9.967963e-01	9.965035e-01	9.961357e-01	9.956481e-01	9.949807e-01	9.940679e-01	9.928553e-01	9.913234e-01	9.895845e-01	9.880535e-01	9.871996e-01	9.869512e-01	9.869476e-01	9.872128e-01	9.882320e-01	9.904438e-01	9.939319e-01	9.984646e-01	1.003821e+00	1.009899e+00	1.016307e+00	1.021835e+00	1.025112e+00	1.026431e+00	1.027814e+00	1.030415e+00	1.032659e+00	1.036184e+00	9.979000e-01	9.979441e-01	9.978989e-01	9.978942e-01	9.978871e-01	9.978811e-01	9.978734e-01	9.978617e-01	9.978464e-01	9.978294e-01	9.978102e-01	9.977885e-01	9.977642e-01	9.977369e-01	9.977054e-01	9.976694e-01	9.976287e-01	9.975859e-01	9.975406e-01	9.974894e-01	9.974341e-01	9.973682e-01	9.972954e-01	9.972161e-01	9.971285e-01	9.970358e-01	9.969315e-01	9.968142e-01	9.966818e-01	9.965320e-01	9.963628e-01	9.961709e-01	9.959509e-01	9.956920e-01	9.953704e-01	9.949474e-01	9.943683e-01	9.935726e-01	9.925082e-01	9.911426e-01	9.895223e-01	9.879288e-01	9.868428e-01	9.864332e-01	9.863924e-01	9.864778e-01	9.869957e-01	9.883810e-01	9.909145e-01	9.945262e-01	9.989949e-01	1.004234e+00	1.010166e+00	1.016146e+00	1.020759e+00	1.022991e+00	1.023471e+00	1.023396e+00	1.022421e+00	1.019433e+00	1.014265e+00	1.008336e+00	1.003412e+00	1.000249e+00	9.986256e-01	9.979487e-01	9.976994e-01	9.975937e-01	9.975223e-01	9.974439e-01	9.973360e-01	9.971850e-01	9.969866e-01	9.967380e-01	9.964269e-01	9.960245e-01	9.954839e-01	9.947459e-01	9.937511e-01	9.924502e-01	9.908546e-01	9.891921e-01	9.879525e-01	9.874256e-01	9.873436e-01	9.873999e-01	9.878214e-01	9.890631e-01	9.914553e-01	9.949735e-01	9.993851e-01	1.004587e+00	1.010546e+00	1.016724e+00	1.021768e+00	1.024535e+00	1.025720e+00	1.027266e+00	1.029806e+00	1.031677e+00	1.034616e+00	9.978916e-01	9.979242e-01	9.978886e-01	9.978822e-01	9.978730e-01	9.978659e-01	9.978574e-01	9.978457e-01	9.978300e-01	9.978127e-01	9.977936e-01	9.977719e-01	9.977477e-01	9.977199e-01	9.976881e-01	9.976519e-01	9.976121e-01	9.975673e-01	9.975207e-01	9.974710e-01	9.974138e-01	9.973473e-01	9.972730e-01	9.971907e-01	9.971027e-01	9.970063e-01	9.968980e-01	9.967764e-01	9.966384e-01	9.964833e-01	9.963092e-01	9.961097e-01	9.958808e-01	9.956053e-01	9.952547e-01	9.947842e-01	9.941361e-01	9.932520e-01	9.920849e-01	9.906269e-01	9.890068e-01	9.876333e-01	9.869561e-01	9.868040e-01	9.868259e-01	9.870370e-01	9.877707e-01	9.893842e-01	9.920440e-01	9.956309e-01	9.999785e-01	1.005081e+00	1.010820e+00	1.016416e+00	1.020435e+00	1.022159e+00	1.022453e+00	1.022311e+00	1.021204e+00	1.018241e+00	1.013547e+00	1.008367e+00	1.003913e+00	1.000736e+00	9.988805e-01	9.980204e-01	9.976879e-01	9.975522e-01	9.974688e-01	9.973856e-01	9.972768e-01	9.971259e-01	9.969243e-01	9.966646e-01	9.963291e-01	9.958837e-01	9.952780e-01	9.944544e-01	9.933566e-01	9.919517e-01	9.903187e-01	9.888294e-01	9.879883e-01	9.877562e-01	9.877633e-01	9.879231e-01	9.885585e-01	9.900488e-01	9.926070e-01	9.961358e-01	1.000437e+00	1.005486e+00	1.011250e+00	1.017076e+00	1.021543e+00	1.023827e+00	1.024950e+00	1.026668e+00	1.029097e+00	1.030599e+00	1.032951e+00	9.978805e-01	9.979028e-01	9.978749e-01	9.978684e-01	9.978584e-01	9.978498e-01	9.978403e-01	9.978285e-01	9.978126e-01	9.977951e-01	9.977759e-01	9.977538e-01	9.977284e-01	9.976999e-01	9.976668e-01	9.976294e-01	9.975880e-01	9.975432e-01	9.974953e-01	9.974440e-01	9.973868e-01	9.973197e-01	9.972440e-01	9.971621e-01	9.970719e-01	9.969717e-01	9.968600e-01	9.967334e-01	9.965901e-01	9.964284e-01	9.962482e-01	9.960405e-01	9.958000e-01	9.955016e-01	9.951122e-01	9.945799e-01	9.938451e-01	9.928532e-01	9.915661e-01	9.900177e-01	9.884864e-01	9.874956e-01	9.871931e-01	9.871958e-01	9.872997e-01	9.877035e-01	9.886952e-01	9.905371e-01	9.932954e-01	9.968499e-01	1.001091e+00	1.006021e+00	1.011464e+00	1.016542e+00	1.019922e+00	1.021183e+00	1.021336e+00	1.021113e+00	1.019876e+00	1.017002e+00	1.012843e+00	1.008407e+00	1.004417e+00	1.001251e+00	9.991683e-01	9.981092e-01	9.976784e-01	9.975066e-01	9.974109e-01	9.973224e-01	9.972105e-01	9.970577e-01	9.968503e-01	9.965741e-01	9.962060e-01	9.957056e-01	9.950200e-01	9.940922e-01	9.928693e-01	9.913514e-01	9.897548e-01	9.885885e-01	9.881640e-01	9.881370e-01	9.882102e-01	9.885488e-01	9.894471e-01	9.911947e-01	9.938887e-01	9.974099e-01	1.001616e+00	1.006494e+00	1.011961e+00	1.017301e+00	1.021159e+00	1.022990e+00	1.024116e+00	1.026000e+00	1.028295e+00	1.029476e+00	1.031290e+00	9.978651e-01	9.978797e-01	9.978577e-01	9.978515e-01	9.978411e-01	9.978310e-01	9.978208e-01	9.978092e-01	9.977934e-01	9.977759e-01	9.977564e-01	9.977337e-01	9.977075e-01	9.976770e-01	9.976427e-01	9.976038e-01	9.975611e-01	9.975153e-01	9.974653e-01	9.974116e-01	9.973527e-01	9.972842e-01	9.972084e-01	9.971251e-01	9.970320e-01	9.969298e-01	9.968143e-01	9.966830e-01	9.965340e-01	9.963668e-01	9.961788e-01	9.959622e-01	9.957043e-01	9.953773e-01	9.949356e-01	9.943237e-01	9.934832e-01	9.923602e-01	9.909336e-01	9.893350e-01	9.880625e-01	9.875764e-01	9.875223e-01	9.875891e-01	9.878539e-01	9.885052e-01	9.897798e-01	9.918346e-01	9.946617e-01	9.981746e-01	1.002312e+00	1.007021e+00	1.012033e+00	1.016472e+00	1.019201e+00	1.020074e+00	1.020123e+00	1.019804e+00	1.018468e+00	1.015762e+00	1.012188e+00	1.008465e+00	1.004914e+00	1.001776e+00	9.994746e-01	9.982058e-01	9.976693e-01	9.974565e-01	9.973451e-01	9.972510e-01	9.971377e-01	9.969812e-01	9.967643e-01	9.964657e-01	9.960533e-01	9.954827e-01	9.946985e-01	9.936414e-01	9.922686e-01	9.906548e-01	9.892387e-01	9.885777e-01	9.884623e-01	9.885129e-01	9.887280e-01	9.893087e-01	9.905045e-01	9.924980e-01	9.952927e-01	9.987878e-01	1.002902e+00	1.007577e+00	1.012618e+00	1.017330e+00	1.020555e+00	1.022021e+00	1.023215e+00	1.025251e+00	1.027412e+00	1.028362e+00	1.029730e+00	9.978458e-01	9.978553e-01	9.978366e-01	9.978308e-01	9.978200e-01	9.978091e-01	9.977985e-01	9.977873e-01	9.977717e-01	9.977539e-01	9.977338e-01	9.977104e-01	9.976831e-01	9.976516e-01	9.976160e-01	9.975760e-01	9.975319e-01	9.974846e-01	9.974333e-01	9.973772e-01	9.973150e-01	9.972455e-01	9.971684e-01	9.970816e-01	9.969861e-01	9.968798e-01	9.967596e-01	9.966227e-01	9.964677e-01	9.962946e-01	9.960999e-01	9.958709e-01	9.955906e-01	9.952212e-01	9.947124e-01	9.940036e-01	9.930349e-01	9.917493e-01	9.901672e-01	9.886795e-01	9.879195e-01	9.877836e-01	9.878370e-01	9.880362e-01	9.885262e-01	9.894677e-01	9.910274e-01	9.932669e-01	9.961363e-01	9.995897e-01	1.003604e+00	1.008027e+00	1.012465e+00	1.016176e+00	1.018286e+00	1.018839e+00	1.018816e+00	1.018398e+00	1.017020e+00	1.014576e+00	1.011618e+00	1.008555e+00	1.005399e+00	1.002292e+00	9.997836e-01	9.983038e-01	9.976554e-01	9.973999e-01	9.972724e-01	9.971705e-01	9.970523e-01	9.968900e-01	9.966589e-01	9.963297e-01	9.958616e-01	9.952035e-01	9.942971e-01	9.930756e-01	9.915238e-01	9.899376e-01	9.889682e-01	9.887378e-01	9.887706e-01	9.889294e-01	9.893587e-01	9.902329e-01	9.917367e-01	9.939482e-01	9.968114e-01	1.000259e+00	1.004260e+00	1.008681e+00	1.013175e+00	1.017121e+00	1.019738e+00	1.020930e+00	1.022235e+00	1.024409e+00	1.026479e+00	1.027315e+00	1.028353e+00	9.978226e-01	9.978287e-01	9.978103e-01	9.978056e-01	9.977948e-01	9.977838e-01	9.977734e-01	9.977629e-01	9.977474e-01	9.977285e-01	9.977076e-01	9.976832e-01	9.976548e-01	9.976223e-01	9.975856e-01	9.975450e-01	9.975002e-01	9.974514e-01	9.973983e-01	9.973407e-01	9.972754e-01	9.972028e-01	9.971228e-01	9.970349e-01	9.969355e-01	9.968236e-01	9.966971e-01	9.965536e-01	9.963918e-01	9.962111e-01	9.960049e-01	9.957586e-01	9.954456e-01	9.950216e-01	9.944290e-01	9.936024e-01	9.924664e-01	9.909723e-01	9.893379e-01	9.882642e-01	9.880130e-01	9.880296e-01	9.881833e-01	9.885871e-01	9.893540e-01	9.906093e-01	9.924355e-01	9.948213e-01	9.977082e-01	1.001078e+00	1.004914e+00	1.008972e+00	1.012710e+00	1.015585e+00	1.017153e+00	1.017496e+00	1.017411e+00	1.016918e+00	1.015578e+00	1.013500e+00	1.011157e+00	1.008681e+00	1.005866e+00	1.002783e+00	1.000082e+00	9.983980e-01	9.976378e-01	9.973369e-01	9.971911e-01	9.970804e-01	9.969556e-01	9.967834e-01	9.965310e-01	9.961590e-01	9.956182e-01	9.948500e-01	9.937805e-01	9.923422e-01	9.906616e-01	9.893891e-01	9.889926e-01	9.889742e-01	9.890932e-01	9.894413e-01	9.901444e-01	9.913441e-01	9.931418e-01	9.955316e-01	9.984350e-01	1.001810e+00	1.005643e+00	1.009733e+00	1.013564e+00	1.016664e+00	1.018675e+00	1.019730e+00	1.021169e+00	1.023474e+00	1.025537e+00	1.026389e+00	1.027226e+00	9.977964e-01	9.978006e-01	9.977798e-01	9.977762e-01	9.977657e-01	9.977553e-01	9.977452e-01	9.977355e-01	9.977196e-01	9.977000e-01	9.976772e-01	9.976517e-01	9.976223e-01	9.975886e-01	9.975510e-01	9.975094e-01	9.974632e-01	9.974125e-01	9.973564e-01	9.972945e-01	9.972265e-01	9.971537e-01	9.970725e-01	9.969811e-01	9.968773e-01	9.967594e-01	9.966257e-01	9.964749e-01	9.963048e-01	9.961140e-01	9.958938e-01	9.956221e-01	9.952644e-01	9.947691e-01	9.940705e-01	9.930853e-01	9.917170e-01	9.900316e-01	9.886692e-01	9.882034e-01	9.881761e-01	9.882830e-01	9.886181e-01	9.892840e-01	9.903688e-01	9.919389e-01	9.939961e-01	9.964857e-01	9.993643e-01	1.002619e+00	1.006187e+00	1.009751e+00	1.012695e+00	1.014721e+00	1.015788e+00	1.016052e+00	1.015917e+00	1.015398e+00	1.014210e+00	1.012576e+00	1.010825e+00	1.008842e+00	1.006307e+00	1.003232e+00	1.000355e+00	9.984828e-01	9.976153e-01	9.972684e-01	9.971028e-01	9.969809e-01	9.968458e-01	9.966574e-01	9.963734e-01	9.959432e-01	9.953071e-01	9.943894e-01	9.930905e-01	9.914153e-01	9.898849e-01	9.892127e-01	9.891301e-01	9.892130e-01	9.894932e-01	9.900951e-01	9.911202e-01	9.926535e-01	9.947112e-01	9.972337e-01	1.000150e+00	1.003426e+00	1.007012e+00	1.010620e+00	1.013703e+00	1.015928e+00	1.017355e+00	1.018413e+00	1.020008e+00	1.022469e+00	1.024637e+00	1.025632e+00	1.026392e+00	9.977677e-01	9.977713e-01	9.977458e-01	9.977437e-01	9.977334e-01	9.977235e-01	9.977132e-01	9.977038e-01	9.976876e-01	9.976669e-01	9.976429e-01	9.976161e-01	9.975856e-01	9.975510e-01	9.975127e-01	9.974696e-01	9.974226e-01	9.973696e-01	9.973107e-01	9.972459e-01	9.971753e-01	9.971004e-01	9.970164e-01	9.969209e-01	9.968115e-01	9.966862e-01	9.965443e-01	9.963846e-01	9.962061e-01	9.960038e-01	9.957626e-01	9.954564e-01	9.950400e-01	9.944530e-01	9.936099e-01	9.923881e-01	9.907435e-01	9.891439e-01	9.883825e-01	9.882877e-01	9.883481e-01	9.886047e-01	9.891864e-01	9.901659e-01	9.915881e-01	9.934512e-01	9.956943e-01	9.982455e-01	1.001082e+00	1.004180e+00	1.007362e+00	1.010245e+00	1.012421e+00	1.013620e+00	1.014221e+00	1.014475e+00	1.014356e+00	1.013898e+00	1.012990e+00	1.011842e+00	1.010615e+00	1.009031e+00	1.006709e+00	1.003623e+00	1.000586e+00	9.985498e-01	9.975848e-01	9.971931e-01	9.970062e-01	9.968705e-01	9.967205e-01	9.965079e-01	9.961789e-01	9.956700e-01	9.949014e-01	9.937604e-01	9.921646e-01	9.904419e-01	9.894479e-01	9.892613e-01	9.892995e-01	9.895047e-01	9.900187e-01	9.909334e-01	9.923081e-01	9.941576e-01	9.964297e-01	9.990404e-01	1.001936e+00	1.005072e+00	1.008291e+00	1.011260e+00	1.013546e+00	1.014972e+00	1.015852e+00	1.016908e+00	1.018760e+00	1.021436e+00	1.023848e+00	1.025083e+00	1.025858e+00	9.977369e-01	9.977406e-01	9.977086e-01	9.977088e-01	9.976979e-01	9.976880e-01	9.976773e-01	9.976675e-01	9.976513e-01	9.976295e-01	9.976040e-01	9.975760e-01	9.975450e-01	9.975094e-01	9.974696e-01	9.974259e-01	9.973766e-01	9.973214e-01	9.972598