# vtk DataFile Version 3.0
vtk output
ASCII
DATASET STRUCTURED_GRID
DIMENSIONS 101 101 1
POINTS 10201 double
0.000000e+00	0.000000e+00	0.0	1.000000e-02	0.000000e+00	0.0	2.000000e-02	0.000000e+00	0.0	3.000000e-02	0.000000e+00	0.0	4.000000e-02	0.000000e+00	0.0	5.000000e-02	0.000000e+00	0.0	6.000000e-02	0.000000e+00	0.0	7.000000e-02	0.000000e+00	0.0	8.000000e-02	0.000000e+00	0.0	9.000000e-02	0.000000e+00	0.0	1.000000e-01	0.000000e+00	0.0	1.100000e-01	0.000000e+00	0.0	1.200000e-01	0.000000e+00	0.0	1.300000e-01	0.000000e+00	0.0	1.400000e-01	0.000000e+00	0.0	1.500000e-01	0.000000e+00	0.0	1.600000e-01	0.000000e+00	0.0	1.700000e-01	0.000000e+00	0.0	1.800000e-01	0.000000e+00	0.0	1.900000e-01	0.000000e+00	0.0	2.000000e-01	0.000000e+00	0.0	2.100000e-01	0.000000e+00	0.0	2.200000e-01	0.000000e+00	0.0	2.300000e-01	0.000000e+00	0.0	2.400000e-01	0.000000e+00	0.0	2.500000e-01	0.000000e+00	0.0	2.600000e-01	0.000000e+00	0.0	2.700000e-01	0.000000e+00	0.0	2.800000e-01	0.000000e+00	0.0	2.900000e-01	0.000000e+00	0.0	3.000000e-01	0.000000e+00	0.0	3.100000e-01	0.000000e+00	0.0	3.200000e-01	0.000000e+00	0.0	3.300000e-01	0.000000e+00	0.0	3.400000e-01	0.000000e+00	0.0	3.500000e-01	0.000000e+00	0.0	3.600000e-01	0.000000e+00	0.0	3.700000e-01	0.000000e+00	0.0	3.800000e-01	0.000000e+00	0.0	3.900000e-01	0.000000e+00	0.0	4.000000e-01	0.000000e+00	0.0	4.100000e-01	0.000000e+00	0.0	4.200000e-01	0.000000e+00	0.0	4.300000e-01	0.000000e+00	0.0	4.400000e-01	0.000000e+00	0.0	4.500000e-01	0.000000e+00	0.0	4.600000e-01	0.000000e+00	0.0	4.700000e-01	0.000000e+00	0.0	4.800000e-01	0.000000e+00	0.0	4.900000e-01	0.000000e+00	0.0	5.000000e-01	0.000000e+00	0.0	5.100000e-01	0.000000e+00	0.0	5.200000e-01	0.000000e+00	0.0	5.300000e-01	0.000000e+00	0.0	5.400000e-01	0.000000e+00	0.0	5.500000e-01	0.000000e+00	0.0	5.600000e-01	0.000000e+00	0.0	5.700000e-01	0.000000e+00	0.0	5.800000e-01	0.000000e+00	0.0	5.900000e-01	0.000000e+00	0.0	6.000000e-01	0.000000e+00	0.0	6.100000e-01	0.000000e+00	0.0	6.200000e-01	0.000000e+00	0.0	6.300000e-01	0.000000e+00	0.0	6.400000e-01	0.000000e+00	0.0	6.500000e-01	0.000000e+00	0.0	6.600000e-01	0.000000e+00	0.0	6.700000e-01	0.000000e+00	0.0	6.800000e-01	0.000000e+00	0.0	6.900000e-01	0.000000e+00	0.0	7.000000e-01	0.000000e+00	0.0	7.100000e-01	0.000000e+00	0.0	7.200000e-01	0.000000e+00	0.0	7.300000e-01	0.000000e+00	0.0	7.400000e-01	0.000000e+00	0.0	7.500000e-01	0.000000e+00	0.0	7.600000e-01	0.000000e+00	0.0	7.700000e-01	0.000000e+00	0.0	7.800000e-01	0.000000e+00	0.0	7.900000e-01	0.000000e+00	0.0	8.000000e-01	0.000000e+00	0.0	8.100000e-01	0.000000e+00	0.0	8.200000e-01	0.000000e+00	0.0	8.300000e-01	0.000000e+00	0.0	8.400000e-01	0.000000e+00	0.0	8.500000e-01	0.000000e+00	0.0	8.600000e-01	0.000000e+00	0.0	8.700000e-01	0.000000e+00	0.0	8.800000e-01	0.000000e+00	0.0	8.900000e-01	0.000000e+00	0.0	9.000000e-01	0.000000e+00	0.0	9.100000e-01	0.000000e+00	0.0	9.200000e-01	0.000000e+00	0.0	9.300000e-01	0.000000e+00	0.0	9.400000e-01	0.000000e+00	0.0	9.500000e-01	0.000000e+00	0.0	9.600000e-01	0.000000e+00	0.0	9.700000e-01	0.000000e+00	0.0	9.800000e-01	0.000000e+00	0.0	9.900000e-01	0.000000e+00	0.0	1.000000e+00	0.000000e+00	0.0	0.000000e+00	1.000000e-02	0.0	1.000000e-02	1.000000e-02	0.0	2.000000e-02	1.000000e-02	0.0	3.000000e-02	1.000000e-02	0.0	4.000000e-02	1.000000e-02	0.0	5.000000e-02	1.000000e-02	0.0	6.000000e-02	1.000000e-02	0.0	7.000000e-02	1.000000e-02	0.0	8.000000e-02	1.000000e-02	0.0	9.000000e-02	1.000000e-02	0.0	1.000000e-01	1.000000e-02	0.0	1.100000e-01	1.000000e-02	0.0	1.200000e-01	1.000000e-02	0.0	1.300000e-01	1.000000e-02	0.0	1.400000e-01	1.000000e-02	0.0	1.500000e-01	1.000000e-02	0.0	1.600000e-01	1.000000e-02	0.0	1.700000e-01	1.000000e-02	0.0	1.800000e-01	1.000000e-02	0.0	1.900000e-01	1.000000e-02	0.0	2.000000e-01	1.000000e-02	0.0	2.100000e-01	1.000000e-02	0.0	2.200000e-01	1.000000e-02	0.0	2.300000e-01	1.000000e-02	0.0	2.400000e-01	1.000000e-02	0.0	2.500000e-01	1.000000e-02	0.0	2.600000e-01	1.000000e-02	0.0	2.700000e-01	1.000000e-02	0.0	2.800000e-01	1.000000e-02	0.0	2.900000e-01	1.000000e-02	0.0	3.000000e-01	1.000000e-02	0.0	3.100000e-01	1.000000e-02	0.0	3.200000e-01	1.000000e-02	0.0	3.300000e-01	1.000000e-02	0.0	3.400000e-01	1.000000e-02	0.0	3.500000e-01	1.000000e-02	0.0	3.600000e-01	1.000000e-02	0.0	3.700000e-01	1.000000e-02	0.0	3.800000e-01	1.000000e-02	0.0	3.900000e-01	1.000000e-02	0.0	4.000000e-01	1.000000e-02	0.0	4.100000e-01	1.000000e-02	0.0	4.200000e-01	1.000000e-02	0.0	4.300000e-01	1.000000e-02	0.0	4.400000e-01	1.000000e-02	0.0	4.500000e-01	1.000000e-02	0.0	4.600000e-01	1.000000e-02	0.0	4.700000e-01	1.000000e-02	0.0	4.800000e-01	1.000000e-02	0.0	4.900000e-01	1.000000e-02	0.0	5.000000e-01	1.000000e-02	0.0	5.100000e-01	1.000000e-02	0.0	5.200000e-01	1.000000e-02	0.0	5.300000e-01	1.000000e-02	0.0	5.400000e-01	1.000000e-02	0.0	5.500000e-01	1.000000e-02	0.0	5.600000e-01	1.000000e-02	0.0	5.700000e-01	1.000000e-02	0.0	5.800000e-01	1.000000e-02	0.0	5.900000e-01	1.000000e-02	0.0	6.000000e-01	1.000000e-02	0.0	6.100000e-01	1.000000e-02	0.0	6.200000e-01	1.000000e-02	0.0	6.300000e-01	1.000000e-02	0.0	6.400000e-01	1.000000e-02	0.0	6.500000e-01	1.000000e-02	0.0	6.600000e-01	1.000000e-02	0.0	6.700000e-01	1.000000e-02	0.0	6.800000e-01	1.000000e-02	0.0	6.900000e-01	1.000000e-02	0.0	7.000000e-01	1.000000e-02	0.0	7.100000e-01	1.000000e-02	0.0	7.200000e-01	1.000000e-02	0.0	7.300000e-01	1.000000e-02	0.0	7.400000e-01	1.000000e-02	0.0	7.500000e-01	1.000000e-02	0.0	7.600000e-01	1.000000e-02	0.0	7.700000e-01	1.000000e-02	0.0	7.800000e-01	1.000000e-02	0.0	7.900000e-01	1.000000e-02	0.0	8.000000e-01	1.000000e-02	0.0	8.100000e-01	1.000000e-02	0.0	8.200000e-01	1.000000e-02	0.0	8.300000e-01	1.000000e-02	0.0	8.400000e-01	1.000000e-02	0.0	8.500000e-01	1.000000e-02	0.0	8.600000e-01	1.000000e-02	0.0	8.700000e-01	1.000000e-02	0.0	8.800000e-01	1.000000e-02	0.0	8.900000e-01	1.000000e-02	0.0	9.000000e-01	1.000000e-02	0.0	9.100000e-01	1.000000e-02	0.0	9.200000e-01	1.000000e-02	0.0	9.300000e-01	1.000000e-02	0.0	9.400000e-01	1.000000e-02	0.0	9.500000e-01	1.000000e-02	0.0	9.600000e-01	1.000000e-02	0.0	9.700000e-01	1.000000e-02	0.0	9.800000e-01	1.000000e-02	0.0	9.900000e-01	1.000000e-02	0.0	1.000000e+00	1.000000e-02	0.0	0.000000e+00	2.000000e-02	0.0	1.000000e-02	2.000000e-02	0.0	2.000000e-02	2.000000e-02	0.0	3.000000e-02	2.000000e-02	0.0	4.000000e-02	2.000000e-02	0.0	5.000000e-02	2.000000e-02	0.0	6.000000e-02	2.000000e-02	0.0	7.000000e-02	2.000000e-02	0.0	8.000000e-02	2.000000e-02	0.0	9.000000e-02	2.000000e-02	0.0	1.000000e-01	2.000000e-02	0.0	1.100000e-01	2.000000e-02	0.0	1.200000e-01	2.000000e-02	0.0	1.300000e-01	2.000000e-02	0.0	1.400000e-01	2.000000e-02	0.0	1.500000e-01	2.000000e-02	0.0	1.600000e-01	2.000000e-02	0.0	1.700000e-01	2.000000e-02	0.0	1.800000e-01	2.000000e-02	0.0	1.900000e-01	2.000000e-02	0.0	2.000000e-01	2.000000e-02	0.0	2.100000e-01	2.000000e-02	0.0	2.200000e-01	2.000000e-02	0.0	2.300000e-01	2.000000e-02	0.0	2.400000e-01	2.000000e-02	0.0	2.500000e-01	2.000000e-02	0.0	2.600000e-01	2.000000e-02	0.0	2.700000e-01	2.000000e-02	0.0	2.800000e-01	2.000000e-02	0.0	2.900000e-01	2.000000e-02	0.0	3.000000e-01	2.000000e-02	0.0	3.100000e-01	2.000000e-02	0.0	3.200000e-01	2.000000e-02	0.0	3.300000e-01	2.000000e-02	0.0	3.400000e-01	2.000000e-02	0.0	3.500000e-01	2.000000e-02	0.0	3.600000e-01	2.000000e-02	0.0	3.700000e-01	2.000000e-02	0.0	3.800000e-01	2.000000e-02	0.0	3.900000e-01	2.000000e-02	0.0	4.000000e-01	2.000000e-02	0.0	4.100000e-01	2.000000e-02	0.0	4.200000e-01	2.000000e-02	0.0	4.300000e-01	2.000000e-02	0.0	4.400000e-01	2.000000e-02	0.0	4.500000e-01	2.000000e-02	0.0	4.600000e-01	2.000000e-02	0.0	4.700000e-01	2.000000e-02	0.0	4.800000e-01	2.000000e-02	0.0	4.900000e-01	2.000000e-02	0.0	5.000000e-01	2.000000e-02	0.0	5.100000e-01	2.000000e-02	0.0	5.200000e-01	2.000000e-02	0.0	5.300000e-01	2.000000e-02	0.0	5.400000e-01	2.000000e-02	0.0	5.500000e-01	2.000000e-02	0.0	5.600000e-01	2.000000e-02	0.0	5.700000e-01	2.000000e-02	0.0	5.800000e-01	2.000000e-02	0.0	5.900000e-01	2.000000e-02	0.0	6.000000e-01	2.000000e-02	0.0	6.100000e-01	2.000000e-02	0.0	6.200000e-01	2.000000e-02	0.0	6.300000e-01	2.000000e-02	0.0	6.400000e-01	2.000000e-02	0.0	6.500000e-01	2.000000e-02	0.0	6.600000e-01	2.000000e-02	0.0	6.700000e-01	2.000000e-02	0.0	6.800000e-01	2.000000e-02	0.0	6.900000e-01	2.000000e-02	0.0	7.000000e-01	2.000000e-02	0.0	7.100000e-01	2.000000e-02	0.0	7.200000e-01	2.000000e-02	0.0	7.300000e-01	2.000000e-02	0.0	7.400000e-01	2.000000e-02	0.0	7.500000e-01	2.000000e-02	0.0	7.600000e-01	2.000000e-02	0.0	7.700000e-01	2.000000e-02	0.0	7.800000e-01	2.000000e-02	0.0	7.900000e-01	2.000000e-02	0.0	8.000000e-01	2.000000e-02	0.0	8.100000e-01	2.000000e-02	0.0	8.200000e-01	2.000000e-02	0.0	8.300000e-01	2.000000e-02	0.0	8.400000e-01	2.000000e-02	0.0	8.500000e-01	2.000000e-02	0.0	8.600000e-01	2.000000e-02	0.0	8.700000e-01	2.000000e-02	0.0	8.800000e-01	2.000000e-02	0.0	8.900000e-01	2.000000e-02	0.0	9.000000e-01	2.000000e-02	0.0	9.100000e-01	2.000000e-02	0.0	9.200000e-01	2.000000e-02	0.0	9.300000e-01	2.000000e-02	0.0	9.400000e-01	2.000000e-02	0.0	9.500000e-01	2.000000e-02	0.0	9.600000e-01	2.000000e-02	0.0	9.700000e-01	2.000000e-02	0.0	9.800000e-01	2.000000e-02	0.0	9.900000e-01	2.000000e-02	0.0	1.000000e+00	2.000000e-02	0.0	0.000000e+00	3.000000e-02	0.0	1.000000e-02	3.000000e-02	0.0	2.000000e-02	3.000000e-02	0.0	3.000000e-02	3.000000e-02	0.0	4.000000e-02	3.000000e-02	0.0	5.000000e-02	3.000000e-02	0.0	6.000000e-02	3.000000e-02	0.0	7.000000e-02	3.000000e-02	0.0	8.000000e-02	3.000000e-02	0.0	9.000000e-02	3.000000e-02	0.0	1.000000e-01	3.000000e-02	0.0	1.100000e-01	3.000000e-02	0.0	1.200000e-01	3.000000e-02	0.0	1.300000e-01	3.000000e-02	0.0	1.400000e-01	3.000000e-02	0.0	1.500000e-01	3.000000e-02	0.0	1.600000e-01	3.000000e-02	0.0	1.700000e-01	3.000000e-02	0.0	1.800000e-01	3.000000e-02	0.0	1.900000e-01	3.000000e-02	0.0	2.000000e-01	3.000000e-02	0.0	2.100000e-01	3.000000e-02	0.0	2.200000e-01	3.000000e-02	0.0	2.300000e-01	3.000000e-02	0.0	2.400000e-01	3.000000e-02	0.0	2.500000e-01	3.000000e-02	0.0	2.600000e-01	3.000000
[...]
POINT_DATA 10201

SCALARS Height double 1
LOOKUP_TABLE default
9.989680e-01	9.989912e-01	9.989811e-01	9.989786e-01	9.989747e-01	9.989695e-01	9.989637e-01	9.989571e-01	9.989538e-01	9.989539e-01	9.989541e-01	9.989526e-01	9.989484e-01	9.989421e-01	9.989346e-01	9.989271e-01	9.989195e-01	9.989161e-01	9.989163e-01	9.989170e-01	9.989155e-01	9.989081e-01	9.988915e-01	9.988717e-01	9.988514e-01	9.988304e-01	9.988114e-01	9.987935e-01	9.987770e-01	9.987616e-01	9.987465e-01	9.987310e-01	9.987143e-01	9.986957e-01	9.986750e-01	9.986522e-01	9.986276e-01	9.986011e-01	9.985725e-01	9.985420e-01	9.985090e-01	9.984732e-01	9.984341e-01	9.983915e-01	9.983456e-01	9.982964e-01	9.982438e-01	9.981874e-01	9.981266e-01	9.980609e-01	9.979895e-01	9.979117e-01	9.978266e-01	9.977325e-01	9.976276e-01	9.975100e-01	9.973782e-01	9.972305e-01	9.970644e-01	9.968747e-01	9.966495e-01	9.963659e-01	9.959862e-01	9.954553e-01	9.947051e-01	9.936799e-01	9.923943e-01	9.909936e-01	9.897561e-01	9.890267e-01	9.891032e-01	9.904828e-01	9.940414e-01	1.000214e+00	1.007757e+00	1.014469e+00	1.019698e+00	1.024326e+00	1.028588e+00	1.031600e+00	1.032547e+00	1.031096e+00	1.027744e+00	1.023320e+00	1.018651e+00	1.013319e+00	1.006479e+00	9.988936e-01	9.927662e-01	9.892618e-01	9.879411e-01	9.879438e-01	9.887593e-01	9.900359e-01	9.914125e-01	9.926207e-01	9.935240e-01	9.941060e-01	9.944395e-01	9.945835e-01	9.946731e-01	9.989807e-01	9.990024e-01	9.989842e-01	9.989814e-01	9.989777e-01	9.989724e-01	9.989662e-01	9.989608e-01	9.989581e-01	9.989572e-01	9.989565e-01	9.989540e-01	9.989488e-01	9.989415e-01	9.989328e-01	9.989237e-01	9.989139e-01	9.989088e-01	9.989062e-01	9.989040e-01	9.989012e-01	9.988963e-01	9.988813e-01	9.988651e-01	9.988458e-01	9.988287e-01	9.988104e-01	9.987930e-01	9.987769e-01	9.987618e-01	9.987470e-01	9.987317e-01	9.987152e-01	9.986966e-01	9.986758e-01	9.986530e-01	9.986281e-01	9.986013e-01	9.985724e-01	9.985414e-01	9.985081e-01	9.984715e-01	9.984318e-01	9.983887e-01	9.983422e-01	9.982924e-01	9.982391e-01	9.981820e-01	9.981206e-01	9.980543e-01	9.979824e-01	9.979041e-01	9.978184e-01	9.977237e-01	9.976182e-01	9.975001e-01	9.973676e-01	9.972193e-01	9.970526e-01	9.968621e-01	9.966359e-01	9.963513e-01	9.959707e-01	9.954391e-01	9.946890e-01	9.936640e-01	9.923730e-01	9.909584e-01	9.896788e-01	9.888346e-01	9.888337e-01	9.902419e-01	9.939351e-01	1.000425e+00	1.007994e+00	1.014507e+00	1.019650e+00	1.024362e+00	1.028863e+00	1.031864e+00	1.032723e+00	1.031369e+00	1.027990e+00	1.023331e+00	1.018598e+00	1.013368e+00	1.006724e+00	9.990894e-01	9.926437e-01	9.890123e-01	9.876621e-01	9.877605e-01	9.886869e-01	9.900052e-01	9.913932e-01	9.926046e-01	9.935083e-01	9.940917e-01	9.944249e-01	9.945651e-01	9.946513e-01	9.989862e-01	9.990084e-01	9.989890e-01	9.989868e-01	9.989838e-01	9.989787e-01	9.989720e-01	9.989650e-01	9.989602e-01	9.989583e-01	9.989568e-01	9.989537e-01	9.989478e-01	9.989397e-01	9.989305e-01	9.989214e-01	9.989113e-01	9.989103e-01	9.989060e-01	9.989041e-01	9.989020e-01	9.988948e-01	9.988832e-01	9.988624e-01	9.988428e-01	9.988222e-01	9.988051e-01	9.987880e-01	9.987726e-01	9.987583e-01	9.987444e-01	9.987298e-01	9.987140e-01	9.986964e-01	9.986764e-01	9.986542e-01	9.986301e-01	9.986039e-01	9.985755e-01	9.985448e-01	9.985116e-01	9.984755e-01	9.984364e-01	9.983940e-01	9.983482e-01	9.982988e-01	9.982456e-01	9.981885e-01	9.981272e-01	9.980611e-01	9.979893e-01	9.979110e-01	9.978248e-01	9.977295e-01	9.976235e-01	9.975051e-01	9.973726e-01	9.972243e-01	9.970572e-01	9.968651e-01	9.966357e-01	9.963463e-01	9.959592e-01	9.954206e-01	9.946662e-01	9.936473e-01	9.923755e-01	9.909770e-01	9.896904e-01	9.888231e-01	9.888452e-01	9.903055e-01	9.941679e-01	1.000774e+00	1.008161e+00	1.014413e+00	1.019455e+00	1.024147e+00	1.028716e+00	1.031762e+00	1.032571e+00	1.031278e+00	1.027833e+00	1.023129e+00	1.018412e+00	1.013285e+00	1.006904e+00	9.994398e-01	9.928727e-01	9.890856e-01	9.876753e-01	9.877466e-01	9.886980e-01	9.900172e-01	9.913844e-01	9.925769e-01	9.934780e-01	9.940700e-01	9.944129e-01	9.945602e-01	9.946475e-01	9.989804e-01	9.990001e-01	9.989851e-01	9.989838e-01	9.989819e-01	9.989774e-01	9.989711e-01	9.989638e-01	9.989587e-01	9.989565e-01	9.989551e-01	9.989524e-01	9.989469e-01	9.989393e-01	9.989307e-01	9.989228e-01	9.989122e-01	9.989119e-01	9.989086e-01	9.989064e-01	9.989044e-01	9.988973e-01	9.988849e-01	9.988644e-01	9.988438e-01	9.988236e-01	9.988050e-01	9.987876e-01	9.987720e-01	9.987578e-01	9.987439e-01	9.987294e-01	9.987131e-01	9.986948e-01	9.986746e-01	9.986524e-01	9.986282e-01	9.986019e-01	9.985732e-01	9.985421e-01	9.985083e-01	9.984719e-01	9.984326e-01	9.983902e-01	9.983446e-01	9.982949e-01	9.982414e-01	9.981837e-01	9.981219e-01	9.980555e-01	9.979835e-01	9.979047e-01	9.978178e-01	9.977216e-01	9.976145e-01	9.974954e-01	9.973626e-01	9.972139e-01	9.970458e-01	9.968516e-01	9.966176e-01	9.963208e-01	9.959235e-01	9.953722e-01	9.946058e-01	9.935815e-01	9.923152e-01	9.909160e-01	9.896236e-01	9.887991e-01	9.888845e-01	9.903823e-01	9.943420e-01	1.000988e+00	1.008277e+00	1.014405e+00	1.019395e+00	1.024055e+00	1.028646e+00	1.031883e+00	1.032786e+00	1.031382e+00	1.027762e+00	1.023050e+00	1.018352e+00	1.013271e+00	1.007015e+00	9.996495e-01	9.930537e-01	9.891780e-01	9.877229e-01	9.877118e-01	9.886262e-01	9.899493e-01	9.913134e-01	9.925002e-01	9.934087e-01	9.940148e-01	9.943702e-01	9.945254e-01	9.946199e-01	9.989783e-01	9.989967e-01	9.989834e-01	9.989834e-01	9.989819e-01	9.989774e-01	9.989708e-01	9.989624e-01	9.989574e-01	9.989549e-01	9.989528e-01	9.989495e-01	9.989438e-01	9.989362e-01	9.989276e-01	9.989199e-01	9.989102e-01	9.989098e-01	9.989071e-01	9.989051e-01	9.989031e-01	9.988958e-01	9.988830e-01	9.988624e-01	9.988416e-01	9.988212e-01	9.988020e-01	9.987844e-01	9.987688e-01	9.987547e-01	9.987409e-01	9.987263e-01	9.987101e-01	9.986917e-01	9.986712e-01	9.986490e-01	9.986249e-01	9.985988e-01	9.985702e-01	9.985390e-01	9.985051e-01	9.984687e-01	9.984295e-01	9.983873e-01	9.983417e-01	9.982922e-01	9.982382e-01	9.981800e-01	9.981175e-01	9.980505e-01	9.979780e-01	9.978988e-01	9.978113e-01	9.977141e-01	9.976060e-01	9.974860e-01	9.973525e-01	9.972031e-01	9.970335e-01	9.968360e-01	9.965960e-01	9.962891e-01	9.958778e-01	9.953095e-01	9.945276e-01	9.934944e-01	9.922245e-01	9.908179e-01	9.895490e-01	9.888206e-01	9.889981e-01	9.905367e-01	9.945391e-01	1.001169e+00	1.008369e+00	1.014411e+00	1.019353e+00	1.023957e+00	1.028538e+00	1.032015e+00	1.033093e+00	1.031478e+00	1.027651e+00	1.022960e+00	1.018312e+00	1.013271e+00	1.007097e+00	9.998278e-01	9.932622e-01	9.893492e-01	9.878449e-01	9.877207e-01	9.885363e-01	9.898388e-01	9.912076e-01	9.923996e-01	9.933188e-01	9.939414e-01	9.943142e-01	9.944802e-01	9.945837e-01	9.989758e-01	9.989936e-01	9.989815e-01	9.989823e-01	9.989809e-01	9.989761e-01	9.989688e-01	9.989602e-01	9.989545e-01	9.989517e-01	9.989496e-01	9.989461e-01	9.989402e-01	9.989326e-01	9.989244e-01	9.989172e-01	9.989084e-01	9.989076e-01	9.989058e-01	9.989040e-01	9.989014e-01	9.988948e-01	9.988805e-01	9.988603e-01	9.988393e-01	9.988196e-01	9.988002e-01	9.987826e-01	9.987670e-01	9.987529e-01	9.987392e-01	9.987244e-01	9.987080e-01	9.986895e-01	9.986688e-01	9.986462e-01	9.986218e-01	9.985954e-01	9.985666e-01	9.985353e-01	9.985014e-01	9.984647e-01	9.984254e-01	9.983831e-01	9.983372e-01	9.982873e-01	9.982329e-01	9.981740e-01	9.981105e-01	9.980424e-01	9.979690e-01	9.978891e-01	9.978010e-01	9.977030e-01	9.975940e-01	9.974729e-01	9.973384e-01	9.971877e-01	9.970160e-01	9.968141e-01	9.965666e-01	9.962472e-01	9.958177e-01	9.952295e-01	9.944302e-01	9.933820e-01	9.920908e-01	9.906797e-01	9.894788e-01	9.888866e-01	9.891588e-01	9.907309e-01	9.947455e-01	1.001317e+00	1.008431e+00	1.014423e+00	1.019332e+00	1.023881e+00	1.028469e+00	1.032170e+00	1.033400e+00	1.031596e+00	1.027563e+00	1.022885e+00	1.018293e+00	1.013279e+00	1.007149e+00	9.999725e-01	9.934845e-01	9.895664e-01	9.880185e-01	9.877664e-01	9.884412e-01	9.896873e-01	9.910607e-01	9.922718e-01	9.932079e-01	9.938492e-01	9.942430e-01	9.944214e-01	9.945362e-01	9.989732e-01	9.989899e-01	9.989798e-01	9.989802e-01	9.989784e-01	9.989732e-01	9.989657e-01	9.989579e-01	9.989521e-01	9.989493e-01	9.989468e-01	9.989431e-01	9.989371e-01	9.989297e-01	9.989219e-01	9.989150e-01	9.989069e-01	9.989047e-01	9.989038e-01	9.989019e-01	9.988982e-01	9.988922e-01	9.988753e-01	9.988564e-01	9.988358e-01	9.988165e-01	9.987974e-01	9.987800e-01	9.987645e-01	9.987504e-01	9.987362e-01	9.987215e-01	9.987049e-01	9.986863e-01	9.986653e-01	9.986423e-01	9.986175e-01	9.985908e-01	9.985620e-01	9.985308e-01	9.984970e-01	9.984604e-01	9.984210e-01	9.983784e-01	9.983322e-01	9.982819e-01	9.982272e-01	9.981676e-01	9.981032e-01	9.980339e-01	9.979592e-01	9.978781e-01	9.977891e-01	9.976903e-01	9.975804e-01	9.974581e-01	9.973218e-01	9.971689e-01	9.969937e-01	9.967860e-01	9.965285e-01	9.961937e-01	9.957427e-01	9.951280e-01	9.943039e-01	9.932330e-01	9.919165e-01	9.905172e-01	9.894315e-01	9.889970e-01	9.893595e-01	9.909762e-01	9.949847e-01	1.001455e+00	1.008472e+00	1.014431e+00	1.019321e+00	1.023830e+00	1.028446e+00	1.032322e+00	1.033661e+00	1.031717e+00	1.027516e+00	1.022834e+00	1.018283e+00	1.013288e+00	1.007185e+00	1.000108e+00	9.937399e-01	9.898373e-01	9.882294e-01	9.878630e-01	9.883580e-01	9.895059e-01	9.908706e-01	9.921031e-01	9.930653e-01	9.937354e-01	9.941547e-01	9.943485e-01	9.944779e-01	9.989673e-01	9.989837e-01	9.989757e-01	9.989763e-01	9.989727e-01	9.989674e-01	9.989609e-01	9.989543e-01	9.989496e-01	9.989470e-01	9.989444e-01	9.989406e-01	9.989348e-01	9.989280e-01	9.989211e-01	9.989145e-01	9.989085e-01	9.989031e-01	9.989032e-01	9.988999e-01	9.988955e-01	9.988874e-01	9.988701e-01	9.988520e-01	9.988318e-01	9.988129e-01	9.987942e-01	9.987769e-01	9.987612e-01	9.987465e-01	9.987322e-01	9.987169e-01	9.987005e-01	9.986818e-01	9.986607e-01	9.986376e-01	9.986123e-01	9.985852e-01	9.985561e-01	9.985248e-01	9.984910e-01	9.984544e-01	9.984146e-01	9.983716e-01	9.983248e-01	9.982741e-01	9.982189e-01	9.981590e-01	9.980941e-01	9.980239e-01	9.979480e-01	9.978657e-01	9.977757e-01	9.976764e-01	9.975658e-01	9.974424e-01	9.973041e-01	9.971479e-01	9.969676e-01	9.967524e-01	9.964822e-01	9.961296e-01	9.956541e-01	9.950105e-01	9.941521e-01	9.930393e-01	9.916953e-01	9.903468e-01	9.894143e-01	9.891392e-01	9.896033e-01	9.912786e-01	9.952684e-01	1.001598e+00	1.008503e+00	1.014437e+00	1.019320e+00	1.023815e+00	1.028454e+00	1.032448e+00	1.033866e+00	1.031818e+00	1.027508e+00	1.022821e+00	1.018282e+00	1.013294e+00	1.007211e+00	1.000253e+00	9.940384e-01	9.901620e-01	9.884826e-01	9.880012e-01	9.883002e-01	9.893052e-01	9.906315e-01	9.918904e-01	9.928924e-01	9.935983e-01	9.940481e-01	9.942605e-01	9.944031e-01	9.989637e-01	9.989803e-01	9.989722e-01	9.989727e-01	9.989669e-01	9.989611e-01	9.989551e-01	9.989500e-01	9.989464e-01	9.989436e-01	9.989411e-01	9.989370e-01	9.989316e-01	9.989256e-01	9.989196e-01	9.989136e-01	9.989079e-01	9.989031e-01	9.989003e-01	9.988989e-01	9.988925e-01	9.988812e-01	9.988660e-01	9.988470e-01	9.988291e-01	9.988098e-01	9.987916e-01	9.987743e-01	9.987581e-01	9.987426e-01	9.987274e-01	9.987121e-01	9.986954e-01	9.986770e-01	9.986558e-01	9.986324e-01	9.986070e-01	9.985795e-01	9.985500e-01	9.985184e-01	9.984843e-01	9.984474e-01	9.984072e-01	9.983635e-01	9.983159e-01	9.982643e-01	9.982084e-01	9.981479e-01	9.980824e-01	9.980113e-01	9.979343e-01	9.978506e-01	9.977595e-01	9.976593e-01	9.975480e-01	9.974235e-01	9.972831e-01	9.971231e-01	9.969367e-01	9.967117e-01	9.964279e-01	9.960534e-01	9.955496e-01	9.948715e-01	9.939691e-01	9.928051e-01	9.914433e-01	9.901850e-01	9.894329e-01	9.893231e-01	9.898812e-01	9.916338e-01	9.955976e-01	1.001761e+00	1.008534e+00	1.014441e+00	1.019330e+00	1.023837e+00	1.028481e+00	1.032535e+00	1.033997e+00	1.031887e+00	1.027532e+00	1.022849e+00	1.018298e+00	1.013290e+00	1.007233e+00	1.000420e+00	9.943832e-01	9.905348e-01	9.887744e-01	9.881688e-01	9.882839e-01	9.890981e-01	9.903553e-01	9.916351e-01	9.926842e-01	9.934349e-01	9.939203e-01	9.941532e-01	9.943122e-01	9.989623e-01	9.989753e-01	9.989686e-01	9.989681e-01	9.989611e-01	9.989549e-01	9.989500e-01	9.989466e-01	9.989433e-01	9.989409e-01	9.989373e-01	9.989333e-01	9.989284e-01	9.989226e-01	9.989172e-01	9.989118e-01	9.989065e-01	9.989017e-01	9.988975e-01	9.988932e-01	9.988869e-01	9.988756e-01	9.988598e-01	9.988437e-01	9.988248e-01	9.988069e-01	9.987893e-01	9.987721e-01	9.987555e-01	9.987391e-01	9.987232e-01	9.987071e-01	9.986903e-01	9.986715e-01	9.986504e-01	9.986269e-01	9.986012e-01	9.985734e-01	9.985434e-01	9.985112e-01	9.984766e-01	9.984392e-01	9.983986e-01	9.983542e-01	9.983059e-01	9.982534e-01	9.981967e-01	9.981355e-01	9.980692e-01	9.979972e-01	9.979189e-01	9.978338e-01	9.977411e-01	9.976395e-01	9.975268e-01	9.974005e-01	9.972573e-01	9.970927e-01	9.968991e-01	9.966624e-01	9.963606e-01	9.959619e-01	9.954263e-01	9.947061e-01	9.937474e-01	9.925273e-01	9.911705e-01	9.900478e-01	9.894992e-01	9.895483e-01	9.901913e-01	9.920384e-01	9.959774e-01	1.001959e+00	1.008576e+00	1.014447e+00	1.019358e+00	1.023885e+00	1.028507e+00	1.032560e+00	1.034037e+00	1.031913e+00	1.027571e+00	1.022908e+00	1.018326e+00	1.013282e+00	1.007265e+00	1.000624e+00	9.947784e-01	9.909570e-01	9.890962e-01	9.883781e-01	9.883121e-01	9.889053e-01	9.900498e-01	9.913337e-01	9.924346e-01	9.932403e-01	9.937683e-01	9.940256e-01	9.942016e-01	9.989598e-01	9.989701e-01	9.989635e-01	9.989620e-01	9.989550e-01	9.989490e-01	9.989449e-01	9.989429e-01	9.989405e-01	9.989374e-01	9.989338e-01	9.989294e-01	9.989249e-01	9.989203e-01	9.989150e-01	9.989095e-01	9.989039e-01	9.988982e-01	9.988927e-01	9.988869e-01	9.988792e-01	9.988679e-01	9.988534e-01	9.988366e-01	9.988196e-01	9.988030e-01	9.987862e-01	9.987693e-01	9.987524e-01	9.987354e-01	9.987188e-01	9.987021e-01	9.986847e-01	9.986659e-01	9.986447e-01	9.986211e-01	9.985951e-01	9.985668e-01	9.985361e-01	9.985030e-01	9.984676e-01	9.984294e-01	9.983880e-01	9.983430e-01	9.982941e-01	9.982410e-01	9.981836e-01	9.981216e-01	9.980544e-01	9.979815e-01	9.979023e-01	9.978161e-01	9.977220e-01	9.976183e-01	9.975032e-01	9.973739e-01	9.972269e-01	9.970563e-01	9.968536e-01	9.966032e-01	9.962809e-01	9.958537e-01	9.952798e-01	9.945071e-01	9.934810e-01	9.922078e-01	9.908935e-01	9.899541e-01	9.896153e-01	9.897971e-01	9.905338e-01	9.924941e-01	9.964172e-01	1.002208e+00	1.008645e+00	1.014466e+00	1.019403e+00	1.023946e+00	1.028517e+00	1.032508e+00	1.033967e+00	1.031872e+00	1.027606e+00	1.022985e+00	1.018365e+00	1.013282e+00	1.007320e+00	1.000880e+00	9.952328e-01	9.914275e-01	9.894499e-01	9.886182e-01	9.883919e-01	9.887464e-01	9.897267e-01	9.909878e-01	9.921417e-01	9.930119e-01	9.935906e-01	9.938757e-01	9.940700e-01	9.989549e-01	9.989640e-01	9.989566e-01	9.989551e-01	9.989487e-01	9.989431e-01	9.989400e-01	9.989387e-01	9.989370e-01	9.989340e-01	9.989300e-01	9.989260e-01	9.989214e-01	9.989173e-01	9.989128e-01	9.989072e-01	9.989010e-01	9.988948e-01	9.988883e-01	9.988814e-01	9.988719e-01	9.988602e-01	9.988456e-01	9.988304e-01	9.988143e-01	9.987987e-01	9.987824e-01	9.987661e-01	9.987483e-01	9.987308e-01	9.987136e-01	9.986963e-01	9.986785e-01	9.986596e-01	9.986383e-01	9.986147e-01	9.985884e-01	9.985595e-01	9.985280e-01	9.984940e-01	9.984574e-01	9.984180e-01	9.983756e-01	9.983297e-01	9.982801e-01	9.982265e-01	9.981685e-01	9.981057e-01	9.980377e-01	9.979639e-01	9.978839e-01	9.977967e-01	9.977012e-01	9.975955e-01	9.974774e-01	9.973442e-01	9.971919e-01	9.970146e-01	9.968011e-01	9.965340e-01	9.961873e-01	9.957263e-01	9.951057e-01	9.942682e-01	9.931659e-01	9.918519e-01	9.906318e-01	9.899222e-01	9.897850e-01	9.900561e-01	9.909107e-01	9.930061e-01	9.969242e-01	1.002521e+00	1.008756e+00	1.014506e+00	1.019460e+00	1.024008e+00	1.028490e+00	1.032358e+00	1.033771e+00	1.031743e+00	1.027611e+00	1.023061e+00	1.018419e+00	1.013305e+00	1.007418e+00	1.001197e+00	9.957517e-01	9.919516e-01	9.898344e-01	9.888759e-01	9.885158e-01	9.886437e-01	9.894029e-01	9.905993e-01	9.918007e-01	9.927460e-01	9.933848e-01	9.937020e-01	9.939160e-01	9.989484e-01	9.989561e-01	9.989480e-01	9.989472e-01	9.989417e-01	9.989371e-01	9.989345e-01	9.989336e-01	9.989322e-01	9.989299e-01	9.989264e-01	9.989224e-01	9.989186e-01	9.989140e-01	9.989095e-01	9.989041e-01	9.988973e-01	9.988901e-01	9.988820e-01	9.988729e-01	9.988624e-01	9.988513e-01	9.988384e-01	9.988239e-01	9.988090e-01	9.987940e-01	9.987780e-01	9.987603e-01	9.987425e-01	9.987245e-01	9.987068e-01	9.986892e-01	9.986713e-01	9.986517e-01	9.986305e-01	9.986069e-01	9.985805e-01	9.985512e-01	9.985191e-01	9.984842e-01	9.984465e-01	9.984059e-01	9.983623e-01	9.983153e-01	9.982647e-01	9.982104e-01	9.981517e-01	9.980882e-01	9.980192e-01	9.979445e-01	9.978634e-01	9.977749e-01	9.976776e-01	9.975695e-01	9.974480e-01	9.973103e-01	9.971523e-01	9.969664e-01	9.967400e-01	9.964533e-01	9.960782e-01	9.955769e-01	9.948989e-01	9.939831e-01	9.927987e-01	9.914747e-01	9.904169e-01	9.899683e-01	9.899849e-01	9.903267e-01	9.913266e-01	9.935801e-01	9.975065e-01	1.002909e+00	1.008920e+00	1.014573e+00	1.019527e+00	1.024057e+00	1.028408e+00	1.032093e+00	1.033438e+00	1.031499e+00	1.027566e+00	1.023128e+00	1.018486e+00	1.013365e+00	1.007574e+00	1.001587e+00	9.963422e-01	9.925342e-01	9.902551e-01	9.891383e-01	9.886821e-01	9.886183e-01	9.891088e-01	9.901754e-01	9.914045e-01	9.924330e-01	9.931450e-01	9.935007e-01	9.937377e-01	9.989409e-01	9.989471e-01	9.989390e-01	9.989390e-01	9.989346e-01	9.989311e-01	9.989287e-01	9.989281e-01	9.989269e-01	9.989248e-01	9.989224e-01	9.989189e-01	9.989149e-01	9.989105e-01	9.989054e-01	9.988997e-01	9.988932e-01	9.988851e-01	9.988758e-01	9.988655e-01	9.988538e-01	9.988426e-01	9.988306e-01	9.988177e-01	9.988038e-01	9.987892e-01	9.987723e-01	9.987545e-01	9.987355e-01	9.987172e-01	9.986996e-01	9.986809e-01	9.986622e-01	9.986425e-01	9.986209e-01	9.985971e-01	9.985705e-01	9.985410e-01	9.985086e-01	9.984732e-01	9.984348e-01	9.983933e-01	9.983486e-01	9.983005e-01	9.982490e-01	9.981936e-01	9.981341e-01	9.980698e-01	9.980000e-01	9.979242e-01	9.978415e-01	9.977509e-01	9.976507e-01	9.975391e-01	9.974139e-01	9.972713e-01	9.971064e-01	9.969104e-01	9.966687e-01	9.963590e-01	9.959503e-01	9.954004e-01	9.946523e-01	9.936432e-01	9.923765e-01	9.911012e-01	9.902977e-01	9.900776e-01	9.901868e-01	9.906166e-01	9.917913e-01	9.942255e-01	9.981711e-01	1.003380e+00	1.009149e+00	1.014673e+00	1.019596e+00	1.024081e+00	1.028257e+00	1.031695e+00	1.032921e+00	1.031135e+00	1.027450e+00	1.023166e+00	1.018568e+00	1.013469e+00	1.007803e+00	1.002063e+00	9.970118e-01	9.931832e-01	9.907179e-01	9.894113e-01	9.888555e-01	9.886675e-01	9.888862e-01	9.897355e-01	9.909450e-01	9.920592e-01	9.928595e-01	9.932648e-01	9.935304e-01	9.989324e-01	9.989381e-01	9.989302e-01	9.989311e-01	9.989277e-01	9.989250e-01	9.989229e-01	9.989225e-01	9.989215e-01	9.989194e-01	9.989176e-01	9.989146e-01	9.989108e-01	9.989061e-01	9.989002e-01	9.988943e-01	9.988872e-01	9.988786e-01	9.988681e-01	9.988563e-01	9.988436e-01	9.988326e-01	9.988220e-01	9.988106e-01	9.987983e-01	9.987831e-01	9.987660e-01	9.987480e-01	9.987297e-01	9.987097e-01	9.986909e-01	9.986720e-01	9.986528e-01	9.986325e-01	9.986103e-01	9.985857e-01	9.985586e-01	9.985287e-01	9.984959e-01	9.984601e-01	9.984213e-01	9.983792e-01	9.983338e-01	9.982850e-01	9.982325e-01	9.981763e-01	9.981160e-01	9.980509e-01	9.979804e-01	9.979034e-01	9.978186e-01	9.977249e-01	9.976209e-01	9.975049e-01	9.973748e-01	9.972268e-01	9.970542e-01	9.968463e-01	9.965861e-01	9.962487e-01	9.957997e-01	9.951905e-01	9.943560e-01	9.932375e-01	9.919094e-01	9.907827e-01	9.902869e-01	9.902359e-01	9.903887e-01	9.909353e-01	9.923154e-01	9.949503e-01	9.989262e-01	1.003943e+00	1.009449e+00	1.014813e+00	1.019666e+00	1.024060e+00	1.028022e+00	1.031129e+00	1.032217e+00	1.030606e+00	1.027239e+00	1.023164e+00	1.018659e+00	1.013625e+00	1.008118e+00	1.002634e+00	9.977670e-01	9.939063e-01	9.912351e-01	9.897074e-01	9.890167e-01	9.887594e-01	9.887743e-01	9.893265e-01	9.904260e-01	9.916082e-01	9.925120e-01	9.929824e-01	9.932863e-01	9.989251e-01	9.989298e-01	9.989210e-01	9.989234e-01	9.989210e-01	9.989189e-01	9.989172e-01	9.989169e-01	9.989160e-01	9.989142e-01	9.989117e-01	9.989093e-01	9.989054e-01	9.989006e-01	9.988947e-01	9.988865e-01	9.988801e-01	9.988716e-01	9.988595