# vtk DataFile Version 3.0
vtk output
ASCII
DATASET STRUCTURED_GRID
DIMENSIONS 101 101 1
POINTS 10201 double
0.000000e+00	0.000000e+00	0.0	1.000000e-02	0.000000e+00	0.0	2.000000e-02	0.000000e+00	0.0	3.000000e-02	0.000000e+00	0.0	4.000000e-02	0.000000e+00	0.0	5.000000e-02	0.000000e+00	0.0	6.000000e-02	0.000000e+00	0.0	7.000000e-02	0.000000e+00	0.0	8.000000e-02	0.000000e+00	0.0	9.000000e-02	0.000000e+00	0.0	1.000000e-01	0.000000e+00	0.0	1.100000e-01	0.000000e+00	0.0	1.200000e-01	0.000000e+00	0.0	1.300000e-01	0.000000e+00	0.0	1.400000e-01	0.000000e+00	0.0	1.500000e-01	0.000000e+00	0.0	1.600000e-01	0.000000e+00	0.0	1.700000e-01	0.000000e+00	0.0	1.800000e-01	0.000000e+00	0.0	1.900000e-01	0.000000e+00	0.0	2.000000e-01	0.000000e+00	0.0	2.100000e-01	0.000000e+00	0.0	2.200000e-01	0.000000e+00	0.0	2.300000e-01	0.000000e+00	0.0	2.400000e-01	0.000000e+00	0.0	2.500000e-01	0.000000e+00	0.0	2.600000e-01	0.000000e+00	0.0	2.700000e-01	0.000000e+00	0.0	2.800000e-01	0.000000e+00	0.0	2.900000e-01	0.000000e+00	0.0	3.000000e-01	0.000000e+00	0.0	3.100000e-01	0.000000e+00	0.0	3.200000e-01	0.000000e+00	0.0	3.300000e-01	0.000000e+00	0.0	3.400000e-01	0.000000e+00	0.0	3.500000e-01	0.000000e+00	0.0	3.600000e-01	0.000000e+00	0.0	3.700000e-01	0.000000e+00	0.0	3.800000e-01	0.000000e+00	0.0	3.900000e-01	0.000000e+00	0.0	4.000000e-01	0.000000e+00	0.0	4.100000e-01	0.000000e+00	0.0	4.200000e-01	0.000000e+00	0.0	4.300000e-01	0.000000e+00	0.0	4.400000e-01	0.000000e+00	0.0	4.500000e-01	0.000000e+00	0.0	4.600000e-01	0.000000e+00	0.0	4.700000e-01	0.000000e+00	0.0	4.800000e-01	0.000000e+00	0.0	4.900000e-01	0.000000e+00	0.0	5.000000e-01	0.000000e+00	0.0	5.100000e-01	0.000000e+00	0.0	5.200000e-01	0.000000e+00	0.0	5.300000e-01	0.000000e+00	0.0	5.400000e-01	0.000000e+00	0.0	5.500000e-01	0.000000e+00	0.0	5.600000e-01	0.000000e+00	0.0	5.700000e-01	0.000000e+00	0.0	5.800000e-01	0.000000e+00	0.0	5.900000e-01	0.000000e+00	0.0	6.000000e-01	0.000000e+00	0.0	6.100000e-01	0.000000e+00	0.0	6.200000e-01	0.000000e+00	0.0	6.300000e-01	0.000000e+00	0.0	6.400000e-01	0.000000e+00	0.0	6.500000e-01	0.000000e+00	0.0	6.600000e-01	0.000000e+00	0.0	6.700000e-01	0.000000e+00	0.0	6.800000e-01	0.000000e+00	0.0	6.900000e-01	0.000000e+00	0.0	7.000000e-01	0.000000e+00	0.0	7.100000e-01	0.000000e+00	0.0	7.200000e-01	0.000000e+00	0.0	7.300000e-01	0.000000e+00	0.0	7.400000e-01	0.000000e+00	0.0	7.500000e-01	0.000000e+00	0.0	7.600000e-01	0.000000e+00	0.0	7.700000e-01	0.000000e+00	0.0	7.800000e-01	0.000000e+00	0.0	7.900000e-01	0.000000e+00	0.0	8.000000e-01	0.000000e+00	0.0	8.100000e-01	0.000000e+00	0.0	8.200000e-01	0.000000e+00	0.0	8.300000e-01	0.000000e+00	0.0	8.400000e-01	0.000000e+00	0.0	8.500000e-01	0.000000e+00	0.0	8.600000e-01	0.000000e+00	0.0	8.700000e-01	0.000000e+00	0.0	8.800000e-01	0.000000e+00	0.0	8.900000e-01	0.000000e+00	0.0	9.000000e-01	0.000000e+00	0.0	9.100000e-01	0.000000e+00	0.0	9.200000e-01	0.000000e+00	0.0	9.300000e-01	0.000000e+00	0.0	9.400000e-01	0.000000e+00	0.0	9.500000e-01	0.000000e+00	0.0	9.600000e-01	0.000000e+00	0.0	9.700000e-01	0.000000e+00	0.0	9.800000e-01	0.000000e+00	0.0	9.900000e-01	0.000000e+00	0.0	1.000000e+00	0.000000e+00	0.0	0.000000e+00	1.000000e-02	0.0	1.000000e-02	1.000000e-02	0.0	2.000000e-02	1.000000e-02	0.0	3.000000e-02	1.000000e-02	0.0	4.000000e-02	1.000000e-02	0.0	5.000000e-02	1.000000e-02	0.0	6.000000e-02	1.000000e-02	0.0	7.000000e-02	1.000000e-02	0.0	8.000000e-02	1.000000e-02	0.0	9.000000e-02	1.000000e-02	0.0	1.000000e-01	1.000000e-02	0.0	1.100000e-01	1.000000e-02	0.0	1.200000e-01	1.000000e-02	0.0	1.300000e-01	1.000000e-02	0.0	1.400000e-01	1.000000e-02	0.0	1.500000e-01	1.000000e-02	0.0	1.600000e-01	1.000000e-02	0.0	1.700000e-01	1.000000e-02	0.0	1.800000e-01	1.000000e-02	0.0	1.900000e-01	1.000000e-02	0.0	2.000000e-01	1.000000e-02	0.0	2.100000e-01	1.000000e-02	0.0	2.200000e-01	1.000000e-02	0.0	2.300000e-01	1.000000e-02	0.0	2.400000e-01	1.000000e-02	0.0	2.500000e-01	1.000000e-02	0.0	2.600000e-01	1.000000e-02	0.0	2.700000e-01	1.000000e-02	0.0	2.800000e-01	1.000000e-02	0.0	2.900000e-01	1.000000e-02	0.0	3.000000e-01	1.000000e-02	0.0	3.100000e-01	1.000000e-02	0.0	3.200000e-01	1.000000e-02	0.0	3.300000e-01	1.000000e-02	0.0	3.400000e-01	1.000000e-02	0.0	3.500000e-01	1.000000e-02	0.0	3.600000e-01	1.000000e-02	0.0	3.700000e-01	1.000000e-02	0.0	3.800000e-01	1.000000e-02	0.0	3.900000e-01	1.000000e-02	0.0	4.000000e-01	1.000000e-02	0.0	4.100000e-01	1.000000e-02	0.0	4.200000e-01	1.000000e-02	0.0	4.300000e-01	1.000000e-02	0.0	4.400000e-01	1.000000e-02	0.0	4.500000e-01	1.000000e-02	0.0	4.600000e-01	1.000000e-02	0.0	4.700000e-01	1.000000e-02	0.0	4.800000e-01	1.000000e-02	0.0	4.900000e-01	1.000000e-02	0.0	5.000000e-01	1.000000e-02	0.0	5.100000e-01	1.000000e-02	0.0	5.200000e-01	1.000000e-02	0.0	5.300000e-01	1.000000e-02	0.0	5.400000e-01	1.000000e-02	0.0	5.500000e-01	1.000000e-02	0.0	5.600000e-01	1.000000e-02	0.0	5.700000e-01	1.000000e-02	0.0	5.800000e-01	1.000000e-02	0.0	5.900000e-01	1.000000e-02	0.0	6.000000e-01	1.000000e-02	0.0	6.100000e-01	1.000000e-02	0.0	6.200000e-01	1.000000e-02	0.0	6.300000e-01	1.000000e-02	0.0	6.400000e-01	1.000000e-02	0.0	6.500000e-01	1.000000e-02	0.0	6.600000e-01	1.000000e-02	0.0	6.700000e-01	1.000000e-02	0.0	6.800000e-01	1.000000e-02	0.0	6.900000e-01	1.000000e-02	0.0	7.000000e-01	1.000000e-02	0.0	7.100000e-01	1.000000e-02	0.0	7.200000e-01	1.000000e-02	0.0	7.300000e-01	1.000000e-02	0.0	7.400000e-01	1.000000e-02	0.0	7.500000e-01	1.000000e-02	0.0	7.600000e-01	1.000000e-02	0.0	7.700000e-01	1.000000e-02	0.0	7.800000e-01	1.000000e-02	0.0	7.900000e-01	1.000000e-02	0.0	8.000000e-01	1.000000e-02	0.0	8.100000e-01	1.000000e-02	0.0	8.200000e-01	1.000000e-02	0.0	8.300000e-01	1.000000e-02	0.0	8.400000e-01	1.000000e-02	0.0	8.500000e-01	1.000000e-02	0.0	8.600000e-01	1.000000e-02	0.0	8.700000e-01	1.000000e-02	0.0	8.800000e-01	1.000000e-02	0.0	8.900000e-01	1.000000e-02	0.0	9.000000e-01	1.000000e-02	0.0	9.100000e-01	1.000000e-02	0.0	9.200000e-01	1.000000e-02	0.0	9.300000e-01	1.000000e-02	0.0	9.400000e-01	1.000000e-02	0.0	9.500000e-01	1.000000e-02	0.0	9.600000e-01	1.000000e-02	0.0	9.700000e-01	1.000000e-02	0.0	9.800000e-01	1.000000e-02	0.0	9.900000e-01	1.000000e-02	0.0	1.000000e+00	1.000000e-02	0.0	0.000000e+00	2.000000e-02	0.0	1.000000e-02	2.000000e-02	0.0	2.000000e-02	2.000000e-02	0.0	3.000000e-02	2.000000e-02	0.0	4.000000e-02	2.000000e-02	0.0	5.000000e-02	2.000000e-02	0.0	6.000000e-02	2.000000e-02	0.0	7.000000e-02	2.000000e-02	0.0	8.000000e-02	2.000000e-02	0.0	9.000000e-02	2.000000e-02	0.0	1.000000e-01	2.000000e-02	0.0	1.100000e-01	2.000000e-02	0.0	1.200000e-01	2.000000e-02	0.0	1.300000e-01	2.000000e-02	0.0	1.400000e-01	2.000000e-02	0.0	1.500000e-01	2.000000e-02	0.0	1.600000e-01	2.000000e-02	0.0	1.700000e-01	2.000000e-02	0.0	1.800000e-01	2.000000e-02	0.0	1.900000e-01	2.000000e-02	0.0	2.000000e-01	2.000000e-02	0.0	2.100000e-01	2.000000e-02	0.0	2.200000e-01	2.000000e-02	0.0	2.300000e-01	2.000000e-02	0.0	2.400000e-01	2.000000e-02	0.0	2.500000e-01	2.000000e-02	0.0	2.600000e-01	2.000000e-02	0.0	2.700000e-01	2.000000e-02	0.0	2.800000e-01	2.000000e-02	0.0	2.900000e-01	2.000000e-02	0.0	3.000000e-01	2.000000e-02	0.0	3.100000e-01	2.000000e-02	0.0	3.200000e-01	2.000000e-02	0.0	3.300000e-01	2.000000e-02	0.0	3.400000e-01	2.000000e-02	0.0	3.500000e-01	2.000000e-02	0.0	3.600000e-01	2.000000e-02	0.0	3.700000e-01	2.000000e-02	0.0	3.800000e-01	2.000000e-02	0.0	3.900000e-01	2.000000e-02	0.0	4.000000e-01	2.000000e-02	0.0	4.100000e-01	2.000000e-02	0.0	4.200000e-01	2.000000e-02	0.0	4.300000e-01	2.000000e-02	0.0	4.400000e-01	2.000000e-02	0.0	4.500000e-01	2.000000e-02	0.0	4.600000e-01	2.000000e-02	0.0	4.700000e-01	2.000000e-02	0.0	4.800000e-01	2.000000e-02	0.0	4.900000e-01	2.000000e-02	0.0	5.000000e-01	2.000000e-02	0.0	5.100000e-01	2.000000e-02	0.0	5.200000e-01	2.000000e-02	0.0	5.300000e-01	2.000000e-02	0.0	5.400000e-01	2.000000e-02	0.0	5.500000e-01	2.000000e-02	0.0	5.600000e-01	2.000000e-02	0.0	5.700000e-01	2.000000e-02	0.0	5.800000e-01	2.000000e-02	0.0	5.900000e-01	2.000000e-02	0.0	6.000000e-01	2.000000e-02	0.0	6.100000e-01	2.000000e-02	0.0	6.200000e-01	2.000000e-02	0.0	6.300000e-01	2.000000e-02	0.0	6.400000e-01	2.000000e-02	0.0	6.500000e-01	2.000000e-02	0.0	6.600000e-01	2.000000e-02	0.0	6.700000e-01	2.000000e-02	0.0	6.800000e-01	2.000000e-02	0.0	6.900000e-01	2.000000e-02	0.0	7.000000e-01	2.000000e-02	0.0	7.100000e-01	2.000000e-02	0.0	7.200000e-01	2.000000e-02	0.0	7.300000e-01	2.000000e-02	0.0	7.400000e-01	2.000000e-02	0.0	7.500000e-01	2.000000e-02	0.0	7.600000e-01	2.000000e-02	0.0	7.700000e-01	2.000000e-02	0.0	7.800000e-01	2.000000e-02	0.0	7.900000e-01	2.000000e-02	0.0	8.000000e-01	2.000000e-02	0.0	8.100000e-01	2.000000e-02	0.0	8.200000e-01	2.000000e-02	0.0	8.300000e-01	2.000000e-02	0.0	8.400000e-01	2.000000e-02	0.0	8.500000e-01	2.000000e-02	0.0	8.600000e-01	2.000000e-02	0.0	8.700000e-01	2.000000e-02	0.0	8.800000e-01	2.000000e-02	0.0	8.900000e-01	2.000000e-02	0.0	9.000000e-01	2.000000e-02	0.0	9.100000e-01	2.000000e-02	0.0	9.200000e-01	2.000000e-02	0.0	9.300000e-01	2.000000e-02	0.0	9.400000e-01	2.000000e-02	0.0	9.500000e-01	2.000000e-02	0.0	9.600000e-01	2.000000e-02	0.0	9.700000e-01	2.000000e-02	0.0	9.800000e-01	2.000000e-02	0.0	9.900000e-01	2.000000e-02	0.0	1.000000e+00	2.000000e-02	0.0	0.000000e+00	3.000000e-02	0.0	1.000000e-02	3.000000e-02	0.0	2.000000e-02	3.000000e-02	0.0	3.000000e-02	3.000000e-02	0.0	4.000000e-02	3.000000e-02	0.0	5.000000e-02	3.000000e-02	0.0	6.000000e-02	3.000000e-02	0.0	7.000000e-02	3.000000e-02	0.0	8.000000e-02	3.000000e-02	0.0	9.000000e-02	3.000000e-02	0.0	1.000000e-01	3.000000e-02	0.0	1.100000e-01	3.000000e-02	0.0	1.200000e-01	3.000000e-02	0.0	1.300000e-01	3.000000e-02	0.0	1.400000e-01	3.000000e-02	0.0	1.500000e-01	3.000000e-02	0.0	1.600000e-01	3.000000e-02	0.0	1.700000e-01	3.000000e-02	0.0	1.800000e-01	3.000000e-02	0.0	1.900000e-01	3.000000e-02	0.0	2.000000e-01	3.000000e-02	0.0	2.100000e-01	3.000000e-02	0.0	2.200000e-01	3.000000e-02	0.0	2.300000e-01	3.000000e-02	0.0	2.400000e-01	3.000000e-02	0.0	2.500000e-01	3.000000e-02	0.0	2.600000e-01	3.000000
[...]
POINT_DATA 10201

SCALARS Height double 1
LOOKUP_TABLE default
9.994665e-01	9.994824e-01	9.994749e-01	9.994728e-01	9.994717e-01	9.994733e-01	9.994759e-01	9.994772e-01	9.994765e-01	9.994778e-01	9.994778e-01	9.994768e-01	9.994750e-01	9.994723e-01	9.994697e-01	9.994682e-01	9.994694e-01	9.994731e-01	9.994765e-01	9.994783e-01	9.994785e-01	9.994738e-01	9.994659e-01	9.994582e-01	9.994519e-01	9.994455e-01	9.994414e-01	9.994380e-01	9.994368e-01	9.994437e-01	9.994748e-01	9.995754e-01	9.998636e-01	1.000610e+00	1.002301e+00	1.005396e+00	1.009575e+00	1.013564e+00	1.015978e+00	1.016832e+00	1.016898e+00	1.016493e+00	1.015307e+00	1.013058e+00	1.009847e+00	1.006147e+00	1.002370e+00	9.988759e-01	9.958958e-01	9.935736e-01	9.919928e-01	9.911198e-01	9.907928e-01	9.907598e-01	9.908619e-01	9.911696e-01	9.917913e-01	9.927175e-01	9.937655e-01	9.947329e-01	9.955128e-01	9.960977e-01	9.965264e-01	9.968416e-01	9.970748e-01	9.972430e-01	9.973552e-01	9.974196e-01	9.974494e-01	9.974628e-01	9.974846e-01	9.975635e-01	9.978064e-01	9.984675e-01	1.000030e+00	1.003028e+00	1.007289e+00	1.011592e+00	1.014351e+00	1.015410e+00	1.015528e+00	1.015181e+00	1.014117e+00	1.012042e+00	1.008980e+00	1.005354e+00	1.001569e+00	9.979910e-01	9.948746e-01	9.923793e-01	9.905979e-01	9.895166e-01	9.890034e-01	9.888160e-01	9.887713e-01	9.888868e-01	9.892599e-01	9.898854e-01	9.906002e-01	9.911090e-01	9.915025e-01	9.994771e-01	9.994952e-01	9.994753e-01	9.994734e-01	9.994735e-01	9.994761e-01	9.994790e-01	9.994808e-01	9.994812e-01	9.994804e-01	9.994782e-01	9.994751e-01	9.994712e-01	9.994673e-01	9.994644e-01	9.994639e-01	9.994626e-01	9.994681e-01	9.994672e-01	9.994669e-01	9.994655e-01	9.994610e-01	9.994564e-01	9.994490e-01	9.994390e-01	9.994335e-01	9.994270e-01	9.994218e-01	9.994182e-01	9.994177e-01	9.994266e-01	9.994694e-01	9.996435e-01	1.000260e+00	1.001974e+00	1.005361e+00	1.009838e+00	1.013738e+00	1.016027e+00	1.016836e+00	1.016926e+00	1.016666e+00	1.015477e+00	1.013118e+00	1.009821e+00	1.006025e+00	1.002208e+00	9.986986e-01	9.957061e-01	9.934011e-01	9.918746e-01	9.910715e-01	9.907850e-01	9.907488e-01	9.908050e-01	9.911003e-01	9.917568e-01	9.927084e-01	9.937665e-01	9.947342e-01	9.955122e-01	9.960956e-01	9.965226e-01	9.968366e-01	9.970693e-01	9.972373e-01	9.973487e-01	9.974119e-01	9.974403e-01	9.974499e-01	9.974549e-01	9.974771e-01	9.976024e-01	9.981173e-01	9.996678e-01	1.002936e+00	1.007545e+00	1.011783e+00	1.014412e+00	1.015412e+00	1.015537e+00	1.015329e+00	1.014296e+00	1.012116e+00	1.008965e+00	1.005241e+00	1.001408e+00	9.978114e-01	9.946785e-01	9.921932e-01	9.904560e-01	9.894405e-01	9.889752e-01	9.888059e-01	9.887176e-01	9.888125e-01	9.892159e-01	9.898698e-01	9.906024e-01	9.911045e-01	9.914953e-01	9.994856e-01	9.995029e-01	9.994827e-01	9.994810e-01	9.994811e-01	9.994827e-01	9.994842e-01	9.994842e-01	9.994826e-01	9.994819e-01	9.994810e-01	9.994796e-01	9.994776e-01	9.994756e-01	9.994733e-01	9.994713e-01	9.994706e-01	9.994729e-01	9.994727e-01	9.994733e-01	9.994726e-01	9.994675e-01	9.994614e-01	9.994556e-01	9.994499e-01	9.994459e-01	9.994425e-01	9.994386e-01	9.994356e-01	9.994351e-01	9.994437e-01	9.994868e-01	9.996651e-01	1.000305e+00	1.002094e+00	1.005568e+00	1.010010e+00	1.013771e+00	1.015941e+00	1.016735e+00	1.016838e+00	1.016647e+00	1.015520e+00	1.013088e+00	1.009765e+00	1.006040e+00	1.002301e+00	9.988305e-01	9.958644e-01	9.935798e-01	9.920509e-01	9.912182e-01	9.908887e-01	9.908237e-01	9.908520e-01	9.911143e-01	9.917763e-01	9.927337e-01	9.937767e-01	9.947307e-01	9.955046e-01	9.960904e-01	9.965216e-01	9.968395e-01	9.970746e-01	9.972430e-01	9.973534e-01	9.974150e-01	9.974421e-01	9.974505e-01	9.974548e-01	9.974790e-01	9.976112e-01	9.981518e-01	9.997820e-01	1.003162e+00	1.007745e+00	1.011838e+00	1.014329e+00	1.015302e+00	1.015440e+00	1.015289e+00	1.014339e+00	1.012096e+00	1.008904e+00	1.005243e+00	1.001492e+00	9.979361e-01	9.948307e-01	9.923653e-01	9.906293e-01	9.895916e-01	9.890878e-01	9.888803e-01	9.887688e-01	9.888273e-01	9.892252e-01	9.898841e-01	9.906069e-01	9.910957e-01	9.914773e-01	9.994840e-01	9.994999e-01	9.994815e-01	9.994802e-01	9.994801e-01	9.994815e-01	9.994828e-01	9.994828e-01	9.994821e-01	9.994813e-01	9.994802e-01	9.994785e-01	9.994758e-01	9.994729e-01	9.994707e-01	9.994696e-01	9.994701e-01	9.994735e-01	9.994750e-01	9.994763e-01	9.994756e-01	9.994699e-01	9.994632e-01	9.994554e-01	9.994485e-01	9.994433e-01	9.994381e-01	9.994341e-01	9.994310e-01	9.994303e-01	9.994368e-01	9.994729e-01	9.996324e-01	1.000247e+00	1.002043e+00	1.005579e+00	1.010049e+00	1.013768e+00	1.015871e+00	1.016643e+00	1.016752e+00	1.016598e+00	1.015581e+00	1.013150e+00	1.009770e+00	1.006049e+00	1.002331e+00	9.988765e-01	9.959178e-01	9.936335e-01	9.921018e-01	9.912632e-01	9.909274e-01	9.908575e-01	9.908777e-01	9.910994e-01	9.917441e-01	9.927131e-01	9.937563e-01	9.947034e-01	9.954779e-01	9.960694e-01	9.965068e-01	9.968295e-01	9.970671e-01	9.972359e-01	9.973456e-01	9.974068e-01	9.974339e-01	9.974422e-01	9.974453e-01	9.974643e-01	9.975816e-01	9.981007e-01	9.997355e-01	1.003170e+00	1.007778e+00	1.011835e+00	1.014252e+00	1.015201e+00	1.015346e+00	1.015223e+00	1.014384e+00	1.012166e+00	1.008915e+00	1.005251e+00	1.001520e+00	9.979798e-01	9.948800e-01	9.924142e-01	9.906747e-01	9.896285e-01	9.891199e-01	9.889085e-01	9.887906e-01	9.888130e-01	9.891847e-01	9.898467e-01	9.905693e-01	9.910474e-01	9.914253e-01	9.994827e-01	9.994972e-01	9.994795e-01	9.994789e-01	9.994792e-01	9.994801e-01	9.994809e-01	9.994803e-01	9.994795e-01	9.994788e-01	9.994780e-01	9.994767e-01	9.994744e-01	9.994713e-01	9.994685e-01	9.994664e-01	9.994668e-01	9.994704e-01	9.994724e-01	9.994744e-01	9.994740e-01	9.994683e-01	9.994609e-01	9.994522e-01	9.994446e-01	9.994391e-01	9.994340e-01	9.994304e-01	9.994278e-01	9.994272e-01	9.994327e-01	9.994646e-01	9.996132e-01	1.000210e+00	1.002000e+00	1.005557e+00	1.010033e+00	1.013712e+00	1.015774e+00	1.016530e+00	1.016639e+00	1.016511e+00	1.015597e+00	1.013241e+00	1.009823e+00	1.006084e+00	1.002396e+00	9.989644e-01	9.960130e-01	9.937243e-01	9.921824e-01	9.913306e-01	9.909792e-01	9.909014e-01	9.909161e-01	9.911012e-01	9.917023e-01	9.926697e-01	9.937226e-01	9.946663e-01	9.954409e-01	9.960381e-01	9.964832e-01	9.968119e-01	9.970525e-01	9.972220e-01	9.973318e-01	9.973934e-01	9.974210e-01	9.974294e-01	9.974323e-01	9.974500e-01	9.975623e-01	9.980703e-01	9.997027e-01	1.003156e+00	1.007772e+00	1.011786e+00	1.014154e+00	1.015079e+00	1.015231e+00	1.015121e+00	1.014374e+00	1.012251e+00	1.008975e+00	1.005284e+00	1.001577e+00	9.980614e-01	9.949698e-01	9.924998e-01	9.907511e-01	9.896906e-01	9.891633e-01	9.889431e-01	9.888201e-01	9.888110e-01	9.891364e-01	9.897829e-01	9.905065e-01	9.909793e-01	9.913536e-01	9.994824e-01	9.994954e-01	9.994783e-01	9.994777e-01	9.994780e-01	9.994794e-01	9.994799e-01	9.994792e-01	9.994776e-01	9.994768e-01	9.994764e-01	9.994757e-01	9.994738e-01	9.994709e-01	9.994679e-01	9.994653e-01	9.994645e-01	9.994674e-01	9.994683e-01	9.994699e-01	9.994695e-01	9.994646e-01	9.994580e-01	9.994501e-01	9.994432e-01	9.994373e-01	9.994323e-01	9.994287e-01	9.994262e-01	9.994255e-01	9.994305e-01	9.994601e-01	9.996020e-01	1.000185e+00	1.001963e+00	1.005517e+00	1.009983e+00	1.013627e+00	1.015659e+00	1.016405e+00	1.016517e+00	1.016405e+00	1.015582e+00	1.013338e+00	1.009930e+00	1.006159e+00	1.002480e+00	9.990810e-01	9.961399e-01	9.938414e-01	9.922802e-01	9.914069e-01	9.910401e-01	9.909504e-01	9.909600e-01	9.911113e-01	9.916556e-01	9.926026e-01	9.936664e-01	9.946186e-01	9.953951e-01	9.959978e-01	9.964515e-01	9.967870e-01	9.970310e-01	9.972023e-01	9.973132e-01	9.973757e-01	9.974040e-01	9.974130e-01	9.974164e-01	9.974352e-01	9.975484e-01	9.980546e-01	9.996831e-01	1.003131e+00	1.007730e+00	1.011699e+00	1.014032e+00	1.014945e+00	1.015100e+00	1.015002e+00	1.014331e+00	1.012330e+00	1.009085e+00	1.005359e+00	1.001652e+00	9.981694e-01	9.950913e-01	9.926131e-01	9.908471e-01	9.897664e-01	9.892180e-01	9.889835e-01	9.888545e-01	9.888182e-01	9.890879e-01	9.896972e-01	9.904142e-01	9.908896e-01	9.912643e-01	9.994840e-01	9.994961e-01	9.994793e-01	9.994782e-01	9.994782e-01	9.994794e-01	9.994799e-01	9.994794e-01	9.994782e-01	9.994766e-01	9.994752e-01	9.994743e-01	9.994730e-01	9.994711e-01	9.994689e-01	9.994668e-01	9.994654e-01	9.994674e-01	9.994664e-01	9.994673e-01	9.994666e-01	9.994622e-01	9.994572e-01	9.994502e-01	9.994440e-01	9.994375e-01	9.994323e-01	9.994281e-01	9.994252e-01	9.994241e-01	9.994289e-01	9.994577e-01	9.995949e-01	1.000169e+00	1.001932e+00	1.005465e+00	1.009900e+00	1.013512e+00	1.015524e+00	1.016267e+00	1.016382e+00	1.016285e+00	1.015544e+00	1.013428e+00	1.010080e+00	1.006287e+00	1.002602e+00	9.992310e-01	9.963071e-01	9.939989e-01	9.924106e-01	9.915049e-01	9.911132e-01	9.910111e-01	9.910138e-01	9.911321e-01	9.916116e-01	9.925201e-01	9.935896e-01	9.945595e-01	9.953438e-01	9.959538e-01	9.964165e-01	9.967596e-01	9.970092e-01	9.971840e-01	9.972969e-01	9.973605e-01	9.973895e-01	9.973993e-01	9.974038e-01	9.974249e-01	9.975425e-01	9.980533e-01	9.996773e-01	1.003098e+00	1.007652e+00	1.011580e+00	1.013890e+00	1.014798e+00	1.014957e+00	1.014867e+00	1.014265e+00	1.012395e+00	1.009228e+00	1.005485e+00	1.001766e+00	9.983067e-01	9.952489e-01	9.927656e-01	9.909742e-01	9.898609e-01	9.892881e-01	9.890356e-01	9.888991e-01	9.888351e-01	9.890441e-01	9.895997e-01	9.902992e-01	9.907796e-01	9.911557e-01	9.994835e-01	9.994946e-01	9.994796e-01	9.994788e-01	9.994783e-01	9.994797e-01	9.994800e-01	9.994784e-01	9.994774e-01	9.994756e-01	9.994734e-01	9.994720e-01	9.994714e-01	9.994709e-01	9.994703e-01	9.994695e-01	9.994687e-01	9.994701e-01	9.994700e-01	9.994691e-01	9.994679e-01	9.994640e-01	9.994594e-01	9.994533e-01	9.994461e-01	9.994391e-01	9.994327e-01	9.994275e-01	9.994240e-01	9.994229e-01	9.994278e-01	9.994555e-01	9.995899e-01	1.000156e+00	1.001903e+00	1.005399e+00	1.009785e+00	1.013364e+00	1.015366e+00	1.016114e+00	1.016235e+00	1.016154e+00	1.015486e+00	1.013504e+00	1.010256e+00	1.006475e+00	1.002777e+00	9.994163e-01	9.965116e-01	9.941973e-01	9.925768e-01	9.916291e-01	9.912018e-01	9.910806e-01	9.910751e-01	9.911614e-01	9.915710e-01	9.924261e-01	9.934943e-01	9.944859e-01	9.952871e-01	9.959080e-01	9.963791e-01	9.967312e-01	9.969885e-01	9.971678e-01	9.972829e-01	9.973474e-01	9.973769e-01	9.973876e-01	9.973938e-01	9.974180e-01	9.975420e-01	9.980610e-01	9.996786e-01	1.003056e+00	1.007545e+00	1.011429e+00	1.013724e+00	1.014635e+00	1.014801e+00	1.014719e+00	1.014182e+00	1.012444e+00	1.009387e+00	1.005671e+00	1.001935e+00	9.984784e-01	9.954402e-01	9.929571e-01	9.911376e-01	9.899823e-01	9.893694e-01	9.890963e-01	9.889498e-01	9.888575e-01	9.890011e-01	9.894915e-01	9.901632e-01	9.906443e-01	9.910276e-01	9.994798e-01	9.994930e-01	9.994795e-01	9.994793e-01	9.994785e-01	9.994792e-01	9.994798e-01	9.994782e-01	9.994756e-01	9.994734e-01	9.994710e-01	9.994693e-01	9.994690e-01	9.994695e-01	9.994702e-01	9.994707e-01	9.994706e-01	9.994723e-01	9.994720e-01	9.994712e-01	9.994695e-01	9.994657e-01	9.994606e-01	9.994543e-01	9.994470e-01	9.994392e-01	9.994324e-01	9.994270e-01	9.994235e-01	9.994226e-01	9.994277e-01	9.994544e-01	9.995874e-01	1.000150e+00	1.001876e+00	1.005317e+00	1.009639e+00	1.013183e+00	1.015183e+00	1.015941e+00	1.016074e+00	1.016006e+00	1.015408e+00	1.013565e+00	1.010436e+00	1.006699e+00	1.002996e+00	9.996366e-01	9.967445e-01	9.944243e-01	9.927692e-01	9.917742e-01	9.913045e-01	9.911563e-01	9.911405e-01	9.911971e-01	9.915335e-01	9.923205e-01	9.933744e-01	9.943890e-01	9.952159e-01	9.958531e-01	9.963356e-01	9.966981e-01	9.969631e-01	9.971478e-01	9.972653e-01	9.973308e-01	9.973612e-01	9.973734e-01	9.973820e-01	9.974104e-01	9.975432e-01	9.980737e-01	9.996825e-01	1.002999e+00	1.007404e+00	1.011242e+00	1.013531e+00	1.014451e+00	1.014628e+00	1.014555e+00	1.014080e+00	1.012475e+00	1.009548e+00	1.005886e+00	1.002148e+00	9.986871e-01	9.956583e-01	9.931743e-01	9.913277e-01	9.901265e-01	9.894663e-01	9.891611e-01	9.890006e-01	9.888802e-01	9.889544e-01	9.893688e-01	9.900029e-01	9.904820e-01	9.908758e-01	9.994751e-01	9.994887e-01	9.994784e-01	9.994789e-01	9.994776e-01	9.994775e-01	9.994774e-01	9.994760e-01	9.994736e-01	9.994702e-01	9.994683e-01	9.994669e-01	9.994665e-01	9.994671e-01	9.994683e-01	9.994694e-01	9.994697e-01	9.994704e-01	9.994699e-01	9.994682e-01	9.994659e-01	9.994621e-01	9.994580e-01	9.994530e-01	9.994454e-01	9.994382e-01	9.994315e-01	9.994263e-01	9.994232e-01	9.994226e-01	9.994275e-01	9.994539e-01	9.995873e-01	1.000149e+00	1.001853e+00	1.005223e+00	1.009462e+00	1.012970e+00	1.014975e+00	1.015751e+00	1.015897e+00	1.015841e+00	1.015312e+00	1.013612e+00	1.010620e+00	1.006946e+00	1.003251e+00	9.998870e-01	9.969963e-01	9.946674e-01	9.929770e-01	9.919305e-01	9.914144e-01	9.912363e-01	9.912089e-01	9.912410e-01	9.915051e-01	9.922095e-01	9.932345e-01	9.942688e-01	9.951262e-01	9.957856e-01	9.962825e-01	9.966551e-01	9.969282e-01	9.971174e-01	9.972373e-01	9.973046e-01	9.973370e-01	9.973517e-01	9.973638e-01	9.973984e-01	9.975431e-01	9.980888e-01	9.996866e-01	1.002926e+00	1.007229e+00	1.011015e+00	1.013307e+00	1.014246e+00	1.014438e+00	1.014374e+00	1.013958e+00	1.012490e+00	1.009707e+00	1.006121e+00	1.002395e+00	9.989275e-01	9.958956e-01	9.934042e-01	9.915300e-01	9.902827e-01	9.895723e-01	9.892268e-01	9.890477e-01	9.889021e-01	9.889062e-01	9.892340e-01	9.898194e-01	9.902912e-01	9.906953e-01	9.994704e-01	9.994821e-01	9.994749e-01	9.994758e-01	9.994744e-01	9.994738e-01	9.994732e-01	9.994722e-01	9.994707e-01	9.994685e-01	9.994656e-01	9.994650e-01	9.994648e-01	9.994654e-01	9.994665e-01	9.994677e-01	9.994681e-01	9.994683e-01	9.994666e-01	9.994639e-01	9.994614e-01	9.994584e-01	9.994553e-01	9.994502e-01	9.994435e-01	9.994365e-01	9.994303e-01	9.994258e-01	9.994231e-01	9.994226e-01	9.994275e-01	9.994544e-01	9.995905e-01	1.000156e+00	1.001836e+00	1.005119e+00	1.009256e+00	1.012725e+00	1.014743e+00	1.015543e+00	1.015705e+00	1.015660e+00	1.015202e+00	1.013648e+00	1.010805e+00	1.007214e+00	1.003537e+00	1.000166e+00	9.972679e-01	9.949249e-01	9.931993e-01	9.920989e-01	9.915312e-01	9.913195e-01	9.912802e-01	9.912970e-01	9.914942e-01	9.921026e-01	9.930799e-01	9.941252e-01	9.950151e-01	9.957030e-01	9.962186e-01	9.966026e-01	9.968823e-01	9.970759e-01	9.971991e-01	9.972694e-01	9.973048e-01	9.973230e-01	9.973394e-01	9.973821e-01	9.975414e-01	9.981051e-01	9.996897e-01	1.002841e+00	1.007022e+00	1.010750e+00	1.013053e+00	1.014022e+00	1.014233e+00	1.014179e+00	1.013817e+00	1.012490e+00	1.009864e+00	1.006370e+00	1.002670e+00	9.991960e-01	9.961531e-01	9.936469e-01	9.917422e-01	9.904475e-01	9.896844e-01	9.892962e-01	9.890933e-01	9.889272e-01	9.888647e-01	9.890953e-01	9.896143e-01	9.900674e-01	9.904789e-01	9.994668e-01	9.994770e-01	9.994703e-01	9.994716e-01	9.994704e-01	9.994699e-01	9.994698e-01	9.994696e-01	9.994689e-01	9.994675e-01	9.994655e-01	9.994641e-01	9.994643e-01	9.994646e-01	9.994655e-01	9.994663e-01	9.994661e-01	9.994654e-01	9.994631e-01	9.994601e-01	9.994570e-01	9.994544e-01	9.994517e-01	9.994471e-01	9.994412e-01	9.994351e-01	9.994295e-01	9.994251e-01	9.994223e-01	9.994218e-01	9.994273e-01	9.994564e-01	9.995984e-01	1.000170e+00	1.001824e+00	1.005008e+00	1.009028e+00	1.012449e+00	1.014485e+00	1.015316e+00	1.015498e+00	1.015466e+00	1.015075e+00	1.013673e+00	1.010995e+00	1.007502e+00	1.003856e+00	1.000481e+00	9.975699e-01	9.952067e-01	9.934433e-01	9.922875e-01	9.916631e-01	9.914125e-01	9.913556e-01	9.913643e-01	9.915021e-01	9.920076e-01	9.929180e-01	9.939632e-01	9.948864e-01	9.956075e-01	9.961468e-01	9.965451e-01	9.968328e-01	9.970311e-01	9.971581e-01	9.972319e-01	9.972713e-01	9.972937e-01	9.973156e-01	9.973669e-01	9.975431e-01	9.981274e-01	9.996993e-01	1.002753e+00	1.006798e+00	1.010455e+00	1.012769e+00	1.013777e+00	1.014013e+00	1.013970e+00	1.013663e+00	1.012477e+00	1.010020e+00	1.006637e+00	1.002975e+00	9.994989e-01	9.964407e-01	9.939134e-01	9.919739e-01	9.906282e-01	9.898086e-01	9.893746e-01	9.891446e-01	9.889622e-01	9.888386e-01	9.889632e-01	9.893926e-01	9.898086e-01	9.902205e-01	9.994651e-01	9.994746e-01	9.994669e-01	9.994684e-01	9.994673e-01	9.994672e-01	9.994678e-01	9.994686e-01	9.994687e-01	9.994678e-01	9.994661e-01	9.994645e-01	9.994642e-01	9.994649e-01	9.994656e-01	9.994663e-01	9.994657e-01	9.994643e-01	9.994612e-01	9.994577e-01	9.994544e-01	9.994523e-01	9.994504e-01	9.994466e-01	9.994414e-01	9.994358e-01	9.994299e-01	9.994250e-01	9.994221e-01	9.994220e-01	9.994282e-01	9.994598e-01	9.996100e-01	1.000192e+00	1.001818e+00	1.004891e+00	1.008780e+00	1.012145e+00	1.014199e+00	1.015069e+00	1.015277e+00	1.015257e+00	1.014936e+00	1.013689e+00	1.011187e+00	1.007809e+00	1.004208e+00	1.000838e+00	9.979134e-01	9.955255e-01	9.937204e-01	9.925062e-01	9.918200e-01	9.915228e-01	9.914421e-01	9.914405e-01	9.915286e-01	9.919275e-01	9.927525e-01	9.937860e-01	9.947426e-01	9.955017e-01	9.960701e-01	9.964866e-01	9.967851e-01	9.969904e-01	9.971225e-01	9.972004e-01	9.972432e-01	9.972692e-01	9.972960e-01	9.973572e-01	9.975520e-01	9.981584e-01	9.997164e-01	1.002666e+00	1.006563e+00	1.010137e+00	1.012458e+00	1.013509e+00	1.013777e+00	1.013747e+00	1.013494e+00	1.012450e+00	1.010173e+00	1.006920e+00	1.003314e+00	9.998433e-01	9.967698e-01	9.942165e-01	9.922381e-01	9.908381e-01	9.899562e-01	9.894686e-01	9.892082e-01	9.890087e-01	9.888318e-01	9.888443e-01	9.891596e-01	9.895153e-01	9.899160e-01	9.994653e-01	9.994744e-01	9.994654e-01	9.994666e-01	9.994655e-01	9.994658e-01	9.994668e-01	9.994682e-01	9.994692e-01	9.994686e-01	9.994671e-01	9.994652e-01	9.994647e-01	9.994648e-01	9.994664e-01	9.994668e-01	9.994659e-01	9.994639e-01	9.994603e-01	9.994561e-01	9.994528e-01	9.994513e-01	9.994505e-01	9.994477e-01	9.994432e-01	9.994378e-01	9.994320e-01	9.994263e-01	9.994225e-01	9.994214e-01	9.994278e-01	9.994624e-01	9.996242e-01	1.000222e+00	1.001815e+00	1.004768e+00	1.008516e+00	1.011816e+00	1.013887e+00	1.014801e+00	1.015038e+00	1.015033e+00	1.014779e+00	1.013692e+00	1.011376e+00	1.008131e+00	1.004589e+00	1.001233e+00	9.983001e-01	9.958875e-01	9.940381e-01	9.927613e-01	9.920070e-01	9.916537e-01	9.915418e-01	9.915290e-01	9.915748e-01	9.918654e-01	9.925868e-01	9.935930e-01	9.945808e-01	9.953833e-01	9.959869e-01	9.964258e-01	9.967384e-01	9.969524e-01	9.970899e-01	9.971717e-01	9.972178e-01	9.972473e-01	9.972795e-01	9.973511e-01	9.975660e-01	9.981952e-01	9.997362e-01	1.002580e+00	1.006319e+00	1.009799e+00	1.012121e+00	1.013217e+00	1.013522e+00	1.013505e+00	1.013302e+00	1.012403e+00	1.010319e+00	1.007213e+00	1.003680e+00	1.000228e+00	9.971433e-01	9.945624e-01	9.925419e-01	9.910852e-01	9.901371e-01	9.895851e-01	9.892814e-01	9.890628e-01	9.888415e-01	9.887407e-01	9.889193e-01	9.891894e-01	9.895635e-01	9.994662e-01	9.994747e-01	9.994650e-01	9.994657e-01	9.994644e-01	9.994646e-01	9.994656e-01	9.994674e-01	9.994689e-01	9.994688e-01	9.994676e-01	9.994660e-01	9.994651e-01	9.994658e-01	9.994656e-01	9.994669e-01	9.994656e-01	9.994632e-01	9.994592e-01	9.994545e-01	9.994509e-01	9.994501e-01	9.994502e-01	9.994484e-01	9.994449e-01	9.994395e-01	9.994320e-01	9.994253e-01	9.994210e-01	9.994206e-01	9.994276e-01	9.994650e-01	9.996418e-01	1.000256e+00	1.001813e+00	1.004642e+00	1.008241e+00	1.011466e+00	1.013551e+00	1.014512e+00	1.014782e+00	1.014790e+00	1.014599e+00	1.013672e+00	1.011557e+00	1.008460e+00	1.004991e+00	1.001658e+00	9.987222e-01	9.962876e-01	9.943946e-01	9.930520e-01	9.922221e-01	9.918032e-01	9.916499e-01	9.916221e-01	9.916368e-01	9.918279e-01	9.924266e-01	9.933833e-01	9.943952e-01	9.952464e-01	9.958900e-01	9.963570e-01	9.966870e-01	9.969110e-01	9.970545e-01	9.971402e-01	9.971896e-01	9.972229e-01	9.972611e-01	9.973446e-01	9.975810e-01	9.982346e-01	9.997588e-01	1.002492e+00	1.006067e+00	1.009443e+00	1.011761e+00	1.012901e+00	1.013245e+00	1.013243e+00	1.013085e+00	1.012330e+00	1.010447e+00	1.007506e+00	1.004063e+00	1.000642e+00	9.975538e-01	9.949470e-01	9.928824e-01	9.913663e-01	9.903488e-01	9.897263e-01	9.893639e-01	9.891174e-01	9.888597e-01	9.886517e-01	9.886751e-01	9.888323e-01	9.891616e-01	9.994663e-01	9.994748e-01	9.994645e-01	9.994647e-01	9.994633e-01	9.994633e-01	9.994641e-01	9.994656e-01	9.994675e-01	9.994678e-01	9.994672e-01	9.994661e-01	9.994655e-01	9.994653e-01	9.994662e-01	9.994649e-01	9.994643e-01	9.994611e-01	9.994568