# vtk DataFile Version 3.0
vtk output
ASCII
DATASET STRUCTURED_GRID
DIMENSIONS 101 101 1
POINTS 10201 double
0.000000e+00	0.000000e+00	0.0	2.000000e+00	0.000000e+00	0.0	4.000000e+00	0.000000e+00	0.0	6.000000e+00	0.000000e+00	0.0	8.000000e+00	0.000000e+00	0.0	1.000000e+01	0.000000e+00	0.0	1.200000e+01	0.000000e+00	0.0	1.400000e+01	0.000000e+00	0.0	1.600000e+01	0.000000e+00	0.0	1.800000e+01	0.000000e+00	0.0	2.000000e+01	0.000000e+00	0.0	2.200000e+01	0.000000e+00	0.0	2.400000e+01	0.000000e+00	0.0	2.600000e+01	0.000000e+00	0.0	2.800000e+01	0.000000e+00	0.0	3.000000e+01	0.000000e+00	0.0	3.200000e+01	0.000000e+00	0.0	3.400000e+01	0.000000e+00	0.0	3.600000e+01	0.000000e+00	0.0	3.800000e+01	0.000000e+00	0.0	4.000000e+01	0.000000e+00	0.0	4.200000e+01	0.000000e+00	0.0	4.400000e+01	0.000000e+00	0.0	4.600000e+01	0.000000e+00	0.0	4.800000e+01	0.000000e+00	0.0	5.000000e+01	0.000000e+00	0.0	5.200000e+01	0.000000e+00	0.0	5.400000e+01	0.000000e+00	0.0	5.600000e+01	0.000000e+00	0.0	5.800000e+01	0.000000e+00	0.0	6.000000e+01	0.000000e+00	0.0	6.200000e+01	0.000000e+00	0.0	6.400000e+01	0.000000e+00	0.0	6.600000e+01	0.000000e+00	0.0	6.800000e+01	0.000000e+00	0.0	7.000000e+01	0.000000e+00	0.0	7.200000e+01	0.000000e+00	0.0	7.400000e+01	0.000000e+00	0.0	7.600000e+01	0.000000e+00	0.0	7.800000e+01	0.000000e+00	0.0	8.000000e+01	0.000000e+00	0.0	8.200000e+01	0.000000e+00	0.0	8.400000e+01	0.000000e+00	0.0	8.600000e+01	0.000000e+00	0.0	8.800000e+01	0.000000e+00	0.0	9.000000e+01	0.000000e+00	0.0	9.200000e+01	0.000000e+00	0.0	9.400000e+01	0.000000e+00	0.0	9.600000e+01	0.000000e+00	0.0	9.800000e+01	0.000000e+00	0.0	1.000000e+02	0.000000e+00	0.0	1.020000e+02	0.000000e+00	0.0	1.040000e+02	0.000000e+00	0.0	1.060000e+02	0.000000e+00	0.0	1.080000e+02	0.000000e+00	0.0	1.100000e+02	0.000000e+00	0.0	1.120000e+02	0.000000e+00	0.0	1.140000e+02	0.000000e+00	0.0	1.160000e+02	0.000000e+00	0.0	1.180000e+02	0.000000e+00	0.0	1.200000e+02	0.000000e+00	0.0	1.220000e+02	0.000000e+00	0.0	1.240000e+02	0.000000e+00	0.0	1.260000e+02	0.000000e+00	0.0	1.280000e+02	0.000000e+00	0.0	1.300000e+02	0.000000e+00	0.0	1.320000e+02	0.000000e+00	0.0	1.340000e+02	0.000000e+00	0.0	1.360000e+02	0.000000e+00	0.0	1.380000e+02	0.000000e+00	0.0	1.400000e+02	0.000000e+00	0.0	1.420000e+02	0.000000e+00	0.0	1.440000e+02	0.000000e+00	0.0	1.460000e+02	0.000000e+00	0.0	1.480000e+02	0.000000e+00	0.0	1.500000e+02	0.000000e+00	0.0	1.520000e+02	0.000000e+00	0.0	1.540000e+02	0.000000e+00	0.0	1.560000e+02	0.000000e+00	0.0	1.580000e+02	0.000000e+00	0.0	1.600000e+02	0.000000e+00	0.0	1.620000e+02	0.000000e+00	0.0	1.640000e+02	0.000000e+00	0.0	1.660000e+02	0.000000e+00	0.0	1.680000e+02	0.000000e+00	0.0	1.700000e+02	0.000000e+00	0.0	1.720000e+02	0.000000e+00	0.0	1.740000e+02	0.000000e+00	0.0	1.760000e+02	0.000000e+00	0.0	1.780000e+02	0.000000e+00	0.0	1.800000e+02	0.000000e+00	0.0	1.820000e+02	0.000000e+00	0.0	1.840000e+02	0.000000e+00	0.0	1.860000e+02	0.000000e+00	0.0	1.880000e+02	0.000000e+00	0.0	1.900000e+02	0.000000e+00	0.0	1.920000e+02	0.000000e+00	0.0	1.940000e+02	0.000000e+00	0.0	1.960000e+02	0.000000e+00	0.0	1.980000e+02	0.000000e+00	0.0	2.000000e+02	0.000000e+00	0.0	0.000000e+00	2.000000e+00	0.0	2.000000e+00	2.000000e+00	0.0	4.000000e+00	2.000000e+00	0.0	6.000000e+00	2.000000e+00	0.0	8.000000e+00	2.000000e+00	0.0	1.000000e+01	2.000000e+00	0.0	1.200000e+01	2.000000e+00	0.0	1.400000e+01	2.000000e+00	0.0	1.600000e+01	2.000000e+00	0.0	1.800000e+01	2.000000e+00	0.0	2.000000e+01	2.000000e+00	0.0	2.200000e+01	2.000000e+00	0.0	2.400000e+01	2.000000e+00	0.0	2.600000e+01	2.000000e+00	0.0	2.800000e+01	2.000000e+00	0.0	3.000000e+01	2.000000e+00	0.0	3.200000e+01	2.000000e+00	0.0	3.400000e+01	2.000000e+00	0.0	3.600000e+01	2.000000e+00	0.0	3.800000e+01	2.000000e+00	0.0	4.000000e+01	2.000000e+00	0.0	4.200000e+01	2.000000e+00	0.0	4.400000e+01	2.000000e+00	0.0	4.600000e+01	2.000000e+00	0.0	4.800000e+01	2.000000e+00	0.0	5.000000e+01	2.000000e+00	0.0	5.200000e+01	2.000000e+00	0.0	5.400000e+01	2.000000e+00	0.0	5.600000e+01	2.000000e+00	0.0	5.800000e+01	2.000000e+00	0.0	6.000000e+01	2.000000e+00	0.0	6.200000e+01	2.000000e+00	0.0	6.400000e+01	2.000000e+00	0.0	6.600000e+01	2.000000e+00	0.0	6.800000e+01	2.000000e+00	0.0	7.000000e+01	2.000000e+00	0.0	7.200000e+01	2.000000e+00	0.0	7.400000e+01	2.000000e+00	0.0	7.600000e+01	2.000000e+00	0.0	7.800000e+01	2.000000e+00	0.0	8.000000e+01	2.000000e+00	0.0	8.200000e+01	2.000000e+00	0.0	8.400000e+01	2.000000e+00	0.0	8.600000e+01	2.000000e+00	0.0	8.800000e+01	2.000000e+00	0.0	9.000000e+01	2.000000e+00	0.0	9.200000e+01	2.000000e+00	0.0	9.400000e+01	2.000000e+00	0.0	9.600000e+01	2.000000e+00	0.0	9.800000e+01	2.000000e+00	0.0	1.000000e+02	2.000000e+00	0.0	1.020000e+02	2.000000e+00	0.0	1.040000e+02	2.000000e+00	0.0	1.060000e+02	2.000000e+00	0.0	1.080000e+02	2.000000e+00	0.0	1.100000e+02	2.000000e+00	0.0	1.120000e+02	2.000000e+00	0.0	1.140000e+02	2.000000e+00	0.0	1.160000e+02	2.000000e+00	0.0	1.180000e+02	2.000000e+00	0.0	1.200000e+02	2.000000e+00	0.0	1.220000e+02	2.000000e+00	0.0	1.240000e+02	2.000000e+00	0.0	1.260000e+02	2.000000e+00	0.0	1.280000e+02	2.000000e+00	0.0	1.300000e+02	2.000000e+00	0.0	1.320000e+02	2.000000e+00	0.0	1.340000e+02	2.000000e+00	0.0	1.360000e+02	2.000000e+00	0.0	1.380000e+02	2.000000e+00	0.0	1.400000e+02	2.000000e+00	0.0	1.420000e+02	2.000000e+00	0.0	1.440000e+02	2.000000e+00	0.0	1.460000e+02	2.000000e+00	0.0	1.480000e+02	2.000000e+00	0.0	1.500000e+02	2.000000e+00	0.0	1.520000e+02	2.000000e+00	0.0	1.540000e+02	2.000000e+00	0.0	1.560000e+02	2.000000e+00	0.0	1.580000e+02	2.000000e+00	0.0	1.600000e+02	2.000000e+00	0.0	1.620000e+02	2.000000e+00	0.0	1.640000e+02	2.000000e+00	0.0	1.660000e+02	2.000000e+00	0.0	1.680000e+02	2.000000e+00	0.0	1.700000e+02	2.000000e+00	0.0	1.720000e+02	2.000000e+00	0.0	1.740000e+02	2.000000e+00	0.0	1.760000e+02	2.000000e+00	0.0	1.780000e+02	2.000000e+00	0.0	1.800000e+02	2.000000e+00	0.0	1.820000e+02	2.000000e+00	0.0	1.840000e+02	2.000000e+00	0.0	1.860000e+02	2.000000e+00	0.0	1.880000e+02	2.000000e+00	0.0	1.900000e+02	2.000000e+00	0.0	1.920000e+02	2.000000e+00	0.0	1.940000e+02	2.000000e+00	0.0	1.960000e+02	2.000000e+00	0.0	1.980000e+02	2.000000e+00	0.0	2.000000e+02	2.000000e+00	0.0	0.000000e+00	4.000000e+00	0.0	2.000000e+00	4.000000e+00	0.0	4.000000e+00	4.000000e+00	0.0	6.000000e+00	4.000000e+00	0.0	8.000000e+00	4.000000e+00	0.0	1.000000e+01	4.000000e+00	0.0	1.200000e+01	4.000000e+00	0.0	1.400000e+01	4.000000e+00	0.0	1.600000e+01	4.000000e+00	0.0	1.800000e+01	4.000000e+00	0.0	2.000000e+01	4.000000e+00	0.0	2.200000e+01	4.000000e+00	0.0	2.400000e+01	4.000000e+00	0.0	2.600000e+01	4.000000e+00	0.0	2.800000e+01	4.000000e+00	0.0	3.000000e+01	4.000000e+00	0.0	3.200000e+01	4.000000e+00	0.0	3.400000e+01	4.000000e+00	0.0	3.600000e+01	4.000000e+00	0.0	3.800000e+01	4.000000e+00	0.0	4.000000e+01	4.000000e+00	0.0	4.200000e+01	4.000000e+00	0.0	4.400000e+01	4.000000e+00	0.0	4.600000e+01	4.000000e+00	0.0	4.800000e+01	4.000000e+00	0.0	5.000000e+01	4.000000e+00	0.0	5.200000e+01	4.000000e+00	0.0	5.400000e+01	4.000000e+00	0.0	5.600000e+01	4.000000e+00	0.0	5.800000e+01	4.000000e+00	0.0	6.000000e+01	4.000000e+00	0.0	6.200000e+01	4.000000e+00	0.0	6.400000e+01	4.000000e+00	0.0	6.600000e+01	4.000000e+00	0.0	6.800000e+01	4.000000e+00	0.0	7.000000e+01	4.000000e+00	0.0	7.200000e+01	4.000000e+00	0.0	7.400000e+01	4.000000e+00	0.0	7.600000e+01	4.000000e+00	0.0	7.800000e+01	4.000000e+00	0.0	8.000000e+01	4.000000e+00	0.0	8.200000e+01	4.000000e+00	0.0	8.400000e+01	4.000000e+00	0.0	8.600000e+01	4.000000e+00	0.0	8.800000e+01	4.000000e+00	0.0	9.000000e+01	4.000000e+00	0.0	9.200000e+01	4.000000e+00	0.0	9.400000e+01	4.000000e+00	0.0	9.600000e+01	4.000000e+00	0.0	9.800000e+01	4.000000e+00	0.0	1.000000e+02	4.000000e+00	0.0	1.020000e+02	4.000000e+00	0.0	1.040000e+02	4.000000e+00	0.0	1.060000e+02	4.000000e+00	0.0	1.080000e+02	4.000000e+00	0.0	1.100000e+02	4.000000e+00	0.0	1.120000e+02	4.000000e+00	0.0	1.140000e+02	4.000000e+00	0.0	1.160000e+02	4.000000e+00	0.0	1.180000e+02	4.000000e+00	0.0	1.200000e+02	4.000000e+00	0.0	1.220000e+02	4.000000e+00	0.0	1.240000e+02	4.000000e+00	0.0	1.260000e+02	4.000000e+00	0.0	1.280000e+02	4.000000e+00	0.0	1.300000e+02	4.000000e+00	0.0	1.320000e+02	4.000000e+00	0.0	1.340000e+02	4.000000e+00	0.0	1.360000e+02	4.000000e+00	0.0	1.380000e+02	4.000000e+00	0.0	1.400000e+02	4.000000e+00	0.0	1.420000e+02	4.000000e+00	0.0	1.440000e+02	4.000000e+00	0.0	1.460000e+02	4.000000e+00	0.0	1.480000e+02	4.000000e+00	0.0	1.500000e+02	4.000000e+00	0.0	1.520000e+02	4.000000e+00	0.0	1.540000e+02	4.000000e+00	0.0	1.560000e+02	4.000000e+00	0.0	1.580000e+02	4.000000e+00	0.0	1.600000e+02	4.000000e+00	0.0	1.620000e+02	4.000000e+00	0.0	1.640000e+02	4.000000e+00	0.0	1.660000e+02	4.000000e+00	0.0	1.680000e+02	4.000000e+00	0.0	1.700000e+02	4.000000e+00	0.0	1.720000e+02	4.000000e+00	0.0	1.740000e+02	4.000000e+00	0.0	1.760000e+02	4.000000e+00	0.0	1.780000e+02	4.000000e+00	0.0	1.800000e+02	4.000000e+00	0.0	1.820000e+02	4.000000e+00	0.0	1.840000e+02	4.000000e+00	0.0	1.860000e+02	4.000000e+00	0.0	1.880000e+02	4.000000e+00	0.0	1.900000e+02	4.000000e+00	0.0	1.920000e+02	4.000000e+00	0.0	1.940000e+02	4.000000e+00	0.0	1.960000e+02	4.000000e+00	0.0	1.980000e+02	4.000000e+00	0.0	2.000000e+02	4.000000e+00	0.0	0.000000e+00	6.000000e+00	0.0	2.000000e+00	6.000000e+00	0.0	4.000000e+00	6.000000e+00	0.0	6.000000e+00	6.000000e+00	0.0	8.000000e+00	6.000000e+00	0.0	1.000000e+01	6.000000e+00	0.0	1.200000e+01	6.000000e+00	0.0	1.400000e+01	6.000000e+00	0.0	1.600000e+01	6.000000e+00	0.0	1.800000e+01	6.000000e+00	0.0	2.000000e+01	6.000000e+00	0.0	2.200000e+01	6.000000e+00	0.0	2.400000e+01	6.000000e+00	0.0	2.600000e+01	6.000000e+00	0.0	2.800000e+01	6.000000e+00	0.0	3.000000e+01	6.000000e+00	0.0	3.200000e+01	6.000000e+00	0.0	3.400000e+01	6.000000e+00	0.0	3.600000e+01	6.000000e+00	0.0	3.800000e+01	6.000000e+00	0.0	4.000000e+01	6.000000e+00	0.0	4.200000e+01	6.000000e+00	0.0	4.400000e+01	6.000000e+00	0.0	4.600000e+01	6.000000e+00	0.0	4.800000e+01	6.000000e+00	0.0	5.000000e+01	6.000000e+00	0.0	5.200000e+01	6.000000
[...]
POINT_DATA 10201

SCALARS Height double 1
LOOKUP_TABLE default
1.000000e+00	1.000000e+00	1.000000e+00	1.000000e+00	1.000000e+00	1.000000e+00	1.000000e+00	1.000000e+00	1.000000e+00	1.000000e+00	1.000000e+00	1.000000e+00	1.000000e+00	1.000000e+00	1.000000e+00	1.000000e+00	1.000000e+00	1.000000e+00	1.000000e+00	1.000000e+00	1.000000e+00	1.000000e+00	1.000000e+00	1.000000e+00	1.000000e+00	1.000000e+00	1.000000e+00	1.000000e+00	1.000000e+00	1.000000e+00	1.000000e+00	1.000000e+00	1.000000e+00	1.000000e+00	1.000000e+00	1.000000e+00	1.000000e+00	1.000000e+00	1.000000e+00	1.000000e+00	1.000000e+00	1.000000e+00	1.000000e+00	1.000000e+00	1.000000e+00	1.000000e+00	1.000000e+00	1.000000e+00	1.000000e+00	1.000000e+00	1.000000e+00	1.000000e+00	1.000000e+00	1.000000e+00	1.000000e+00	1.000000e+00	1.000000e+00	1.000000e+00	1.000000e+00	1.000000e+00	1.000000e+00	1.000000e+00	1.000000e+00	1.000000e+00	1.000000e+00	1.000000e+00	1.000000e+00	1.000000e+00	1.000000e+00	1.000000e+00	1.000000e+00	1.000000e+00	1.000000e+00	1.000000e+00	1.000000e+00	1.000000e+00	1.000000e+00	1.000000e+00	1.000000e+00	1.000000e+00	1.000000e+00	1.000000e+00	1.000000e+00	1.000000e+00	1.000000e+00	1.000000e+00	1.000000e+00	1.000000e+00	1.000000e+00	1.000000e+00	1.000000e+00	1.000000e+00	1.000000e+00	1.000000e+00	1.000000e+00	1.000000e+00	1.000000e+00	1.000000e+00	1.000000e+00	1.000000e+00	1.000000e+00	1.000000e+00	1.000000e+00	1.000000e+00	1.000000e+00	1.000000e+00	1.000000e+00	1.000000e+00	1.000000e+00	1.000000e+00	1.000000e+00	1.000000e+00	1.000000e+00	1.000000e+00	1.000000e+00	1.000000e+00	1.000000e+00	1.000000e+00	1.000000e+00	1.000000e+00	1.000000e+00	1.000000e+00	1.000000e+00	1.000000e+00	1.000000e+00	1.000000e+00	1.000000e+00	1.000000e+00	1.000000e+00	1.000000e+00	1.000000e+00	1.000000e+00	1.000000e+00	1.000000e+00	1.000000e+00	1.000000e+00	1.000000e+00	1.000000e+00	1.000000e+00	1.000000e+00	1.000000e+00	1.000000e+00	1.000000e+00	1.000000e+00	1.000000e+00	1.000000e+00	1.000000e+00	1.000000e+00	1.000000e+00	1.000000e+00	1.000000e+00	1.000000e+00	1.000000e+00	1.000000e+00	1.000000e+00	1.000000e+00	1.000000e+00	1.000000e+00	1.000000e+00	1.000000e+00	1.000000e+00	1.000000e+00	1.000000e+00	1.000000e+00	1.000000e+00	1.000000e+00	1.000000e+00	1.000000e+00	1.000000e+00	1.000000e+00	1.000000e+00	1.000000e+00	1.000000e+00	1.000000e+00	1.000000e+00	1.000000e+00	1.000000e+00	1.000000e+00	1.000000e+00	1.000000e+00	1.000000e+00	1.000000e+00	1.000000e+00	1.000000e+00	1.000000e+00	1.000000e+00	1.000000e+00	1.000000e+00	1.000000e+00	1.000000e+00	1.000000e+00	1.000000e+00	1.000000e+00	1.000000e+00	1.000000e+00	1.000000e+00	1.000000e+00	1.000000e+00	1.000000e+00	1.000000e+00	1.000000e+00	1.000000e+00	1.000000e+00	1.000000e+00	1.000000e+00	1.000000e+00	1.000000e+00	1.000000e+00	1.000000e+00	1.000000e+00	1.000000e+00	1.000000e+00	1.000000e+00	1.000000e+00	1.000000e+00	1.000000e+00	1.000000e+00	1.000000e+00	1.000000e+00	1.000000e+00	1.000000e+00	1.000000e+00	1.000000e+00	1.000000e+00	1.000000e+00	1.000000e+00	1.000000e+00	1.000000e+00	1.000000e+00	1.000000e+00	1.000000e+00	1.000000e+00	1.000000e+00	1.000000e+00	1.000000e+00	1.000000e+00	1.000000e+00	1.000000e+00	1.000000e+00	1.000000e+00	1.000000e+00	1.000000e+00	1.000000e+00	1.000000e+00	1.000000e+00	1.000000e+00	1.000000e+00	1.000000e+00	1.000000e+00	1.000000e+00	1.000000e+00	1.000000e+00	1.000000e+00	1.000000e+00	1.000000e+00	1.000000e+00	1.000000e+00	1.000000e+00	1.000000e+00	1.000000e+00	1.000000e+00	1.000000e+00	1.000000e+00	1.000000e+00	1.000000e+00	1.000000e+00	1.000000e+00	1.000000e+00	1.000000e+00	1.000000e+00	1.000000e+00	1.000000e+00	1.000000e+00	1.000000e+00	1.000000e+00	1.000000e+00	1.000000e+00	1.000000e+00	1.000000e+00	1.000000e+00	1.000000e+00	1.000000e+00	1.000000e+00	1.000000e+00	1.000000e+00	1.000000e+00	1.000000e+00	1.000000e+00	1.000000e+00	1.000000e+00	1.000000e+00	1.000000e+00	1.000000e+00	1.000000e+00	1.000000e+00	1.000000e+00	1.000000e+00	1.000000e+00	1.000000e+00	1.000000e+00	1.000000e+00	1.000000e+00	1.000000e+00	1.000000e+00	1.000000e+00	1.000000e+00	1.000000e+00	1.000000e+00	1.000000e+00	1.000000e+00	1.000000e+00	1.000000e+00	1.000000e+00	1.000000e+00	1.000000e+00	1.000000e+00	1.000000e+00	1.000000e+00	1.000000e+00	1.000000e+00	1.000000e+00	1.000000e+00	1.000000e+00	1.000000e+00	1.000000e+00	1.000000e+00	1.000000e+00	1.000000e+00	1.000000e+00	1.000000e+00	1.000000e+00	1.000000e+00	1.000000e+00	1.000000e+00	1.000000e+00	1.000000e+00	1.000000e+00	1.000000e+00	1.000000e+00	1.000000e+00	1.000000e+00	1.000000e+00	1.000000e+00	1.000000e+00	1.000000e+00	1.000000e+00	1.000000e+00	1.000000e+00	1.000000e+00	1.000000e+00	1.000000e+00	1.000000e+00	1.000000e+00	1.000000e+00	1.000000e+00	1.000000e+00	1.000000e+00	1.000000e+00	1.000000e+00	1.000000e+00	1.000000e+00	1.000000e+00	1.000000e+00	1.000000e+00	1.000000e+00	1.000000e+00	1.000000e+00	1.000000e+00	1.000000e+00	1.000000e+00	1.000000e+00	1.000000e+00	1.000000e+00	1.000000e+00	1.000000e+00	1.000000e+00	1.000000e+00	1.000000e+00	1.000000e+00	1.000000e+00	1.000000e+00	1.000000e+00	1.000000e+00	1.000000e+00	1.000000e+00	1.000000e+00	1.000000e+00	1.000000e+00	1.000000e+00	1.000000e+00	1.000000e+00	1.000000e+00	1.000000e+00	1.000000e+00	1.000000e+00	1.000000e+00	1.000000e+00	1.000000e+00	1.000000e+00	1.000000e+00	1.000000e+00	1.000000e+00	1.000000e+00	1.000000e+00	1.000000e+00	1.000000e+00	1.000000e+00	1.000000e+00	1.000000e+00	1.000000e+00	1.000000e+00	1.000000e+00	1.000000e+00	1.000000e+00	1.000000e+00	1.000000e+00	1.000000e+00	1.000000e+00	1.000000e+00	1.000000e+00	1.000000e+00	1.000000e+00	1.000000e+00	1.000000e+00	1.000000e+00	1.000000e+00	1.000000e+00	1.000000e+00	1.000000e+00	1.000000e+00	1.000000e+00	1.000000e+00	1.000000e+00	1.000000e+00	1.000000e+00	1.000000e+00	1.000000e+00	1.000000e+00	1.000000e+00	1.000000e+00	1.000000e+00	1.000000e+00	1.000000e+00	1.000000e+00	1.000000e+00	1.000000e+00	1.000000e+00	1.000000e+00	1.000000e+00	1.000000e+00	1.000000e+00	1.000000e+00	1.000000e+00	1.000000e+00	1.000000e+00	1.000000e+00	1.000000e+00	1.000000e+00	1.000000e+00	1.000000e+00	1.000000e+00	1.000000e+00	1.000000e+00	1.000000e+00	1.000000e+00	1.000000e+00	1.000000e+00	1.000000e+00	1.000000e+00	1.000000e+00	1.000000e+00	1.000000e+00	1.000000e+00	1.000000e+00	1.000000e+00	1.000000e+00	1.000000e+00	1.000000e+00	1.000000e+00	1.000000e+00	1.000000e+00	1.000000e+00	1.000000e+00	1.000000e+00	1.000000e+00	1.000000e+00	1.000000e+00	1.000000e+00	1.000000e+00	1.000000e+00	1.000000e+00	1.000000e+00	1.000000e+00	1.000000e+00	1.000000e+00	1.000000e+00	1.000000e+00	1.000000e+00	1.000000e+00	1.000000e+00	1.000000e+00	1.000000e+00	1.000000e+00	1.000000e+00	1.000000e+00	1.000000e+00	1.000000e+00	1.000000e+00	1.000000e+00	1.000000e+00	1.000000e+00	1.000000e+00	1.000000e+00	1.000000e+00	1.000000e+00	1.000000e+00	1.000000e+00	1.000000e+00	1.000000e+00	1.000000e+00	1.000000e+00	1.000000e+00	1.000000e+00	1.000000e+00	1.000000e+00	1.000000e+00	1.000000e+00	1.000000e+00	1.000000e+00	1.000000e+00	1.000000e+00	1.000000e+00	1.000000e+00	1.000000e+00	1.000000e+00	1.000000e+00	1.000000e+00	1.000000e+00	1.000000e+00	1.000000e+00	1.000000e+00	1.000000e+00	1.000000e+00	1.000000e+00	1.000000e+00	1.000000e+00	1.000000e+00	1.000000e+00	1.000000e+00	1.000000e+00	1.000000e+00	1.000000e+00	1.000000e+00	1.000000e+00	1.000000e+00	1.000000e+00	1.000000e+00	1.000000e+00	1.000000e+00	1.000000e+00	1.000000e+00	1.000000e+00	1.000000e+00	1.000000e+00	1.000000e+00	1.000000e+00	1.000000e+00	1.000000e+00	1.000000e+00	1.000000e+00	1.000000e+00	1.000000e+00	1.000000e+00	1.000000e+00	1.000000e+00	1.000000e+00	1.000000e+00	1.000000e+00	1.000000e+00	1.000000e+00	1.000000e+00	1.000000e+00	1.000000e+00	1.000000e+00	1.000000e+00	1.000000e+00	1.000000e+00	1.000000e+00	1.000000e+00	1.000000e+00	1.000000e+00	1.000000e+00	1.000000e+00	1.000000e+00	1.000000e+00	1.000000e+00	1.000000e+00	1.000000e+00	1.000000e+00	1.000000e+00	1.000000e+00	1.000000e+00	1.000000e+00	1.000000e+00	1.000000e+00	1.000000e+00	1.000000e+00	1.000000e+00	1.000000e+00	1.000000e+00	1.000000e+00	1.000000e+00	1.000000e+00	1.000000e+00	1.000000e+00	1.000000e+00	1.000000e+00	1.000000e+00	1.000000e+00	1.000000e+00	1.000000e+00	1.000000e+00	1.000000e+00	1.000000e+00	1.000000e+00	1.000000e+00	1.000000e+00	1.000000e+00	1.000000e+00	1.000000e+00	1.000000e+00	1.000000e+00	1.000000e+00	1.000000e+00	1.000000e+00	1.000000e+00	1.000000e+00	1.000000e+00	1.000000e+00	1.000000e+00	1.000000e+00	1.000000e+00	1.000000e+00	1.000000e+00	1.000000e+00	1.000000e+00	1.000000e+00	1.000000e+00	1.000000e+00	1.000000e+00	1.000000e+00	1.000000e+00	1.000000e+00	1.000000e+00	1.000000e+00	1.000000e+00	1.000000e+00	1.000000e+00	1.000000e+00	1.000000e+00	1.000000e+00	1.000000e+00	1.000000e+00	1.000000e+00	1.000000e+00	1.000000e+00	1.000000e+00	1.000000e+00	1.000000e+00	1.000000e+00	1.000000e+00	1.000000e+00	1.000000e+00	1.000000e+00	1.000000e+00	1.000000e+00	1.000000e+00	1.000000e+00	1.000000e+00	1.000000e+00	1.000000e+00	1.000000e+00	1.000000e+00	1.000000e+00	1.000000e+00	1.000000e+00	1.000000e+00	1.000000e+00	1.000000e+00	1.000000e+00	1.000000e+00	1.000000e+00	1.000000e+00	1.000000e+00	1.000000e+00	1.000000e+00	1.000000e+00	1.000000e+00	1.000000e+00	1.000000e+00	1.000000e+00	1.000000e+00	1.000000e+00	1.000000e+00	1.000000e+00	1.000000e+00	1.000000e+00	1.000000e+00	1.000000e+00	1.000000e+00	1.000000e+00	1.000000e+00	1.000000e+00	1.000000e+00	1.000000e+00	1.000000e+00	1.000000e+00	1.000000e+00	1.000000e+00	1.000000e+00	1.000000e+00	1.000000e+00	1.000000e+00	1.000000e+00	1.000000e+00	1.000000e+00	1.000000e+00	1.000000e+00	1.000000e+00	1.000000e+00	1.000000e+00	1.000000e+00	1.000000e+00	1.000000e+00	1.000000e+00	1.000000e+00	1.000000e+00	1.000000e+00	1.000000e+00	1.000000e+00	1.000000e+00	1.000000e+00	1.000000e+00	1.000000e+00	1.000000e+00	1.000000e+00	1.000000e+00	1.000000e+00	1.000000e+00	1.000000e+00	1.000000e+00	1.000000e+00	1.000000e+00	1.000000e+00	1.000000e+00	1.000000e+00	1.000000e+00	1.000000e+00	1.000000e+00	1.000000e+00	1.000000e+00	1.000000e+00	1.000000e+00	1.000000e+00	1.000000e+00	1.000000e+00	1.000000e+00	1.000000e+00	1.000000e+00	1.000000e+00	1.000000e+00	1.000000e+00	1.000000e+00	1.000000e+00	1.000000e+00	1.000000e+00	1.000000e+00	1.000000e+00	1.000000e+00	1.000000e+00	1.000000e+00	1.000000e+00	1.000000e+00	1.000000e+00	1.000000e+00	1.000000e+00	1.000000e+00	1.000000e+00	1.000000e+00	1.000000e+00	1.000000e+00	1.000000e+00	1.000000e+00	1.000000e+00	1.000000e+00	1.000000e+00	1.000000e+00	1.000000e+00	1.000000e+00	1.000000e+00	1.000000e+00	1.000000e+00	1.000000e+00	1.000000e+00	1.000000e+00	1.000000e+00	1.000000e+00	1.000000e+00	1.000000e+00	1.000000e+00	1.000000e+00	1.000000e+00	1.000000e+00	1.000000e+00	1.000000e+00	1.000000e+00	1.000000e+00	1.000000e+00	1.000000e+00	1.000000e+00	1.000000e+00	1.000000e+00	1.000000e+00	1.000000e+00	1.000000e+00	1.000000e+00	1.000000e+00	1.000000e+00	1.000000e+00	1.000000e+00	1.000000e+00	1.000000e+00	1.000000e+00	1.000000e+00	1.000000e+00	1.000000e+00	1.000000e+00	1.000000e+00	1.000000e+00	1.000000e+00	1.000000e+00	1.000000e+00	1.000000e+00	1.000000e+00	1.000000e+00	1.000000e+00	1.000000e+00	1.000000e+00	1.000000e+00	1.000000e+00	1.000000e+00	1.000000e+00	1.000000e+00	1.000000e+00	1.000000e+00	1.000000e+00	1.000000e+00	1.000000e+00	1.000000e+00	1.000000e+00	1.000000e+00	1.000000e+00	1.000000e+00	1.000000e+00	1.000000e+00	1.000000e+00	1.000000e+00	1.000000e+00	1.000000e+00	1.000000e+00	1.000000e+00	1.000000e+00	1.000000e+00	1.000000e+00	1.000000e+00	1.000000e+00	1.000000e+00	1.000000e+00	1.000000e+00	1.000000e+00	1.000000e+00	1.000000e+00	1.000000e+00	1.000000e+00	1.000000e+00	1.000000e+00	1.000000e+00	1.000000e+00	1.000000e+00	1.000000e+00	1.000000e+00	1.000000e+00	1.000000e+00	1.000000e+00	1.000000e+00	1.000000e+00	1.000000e+00	1.000000e+00	1.000000e+00	1.000000e+00	1.000000e+00	1.000000e+00	1.000000e+00	1.000000e+00	1.000000e+00	1.000000e+00	1.000000e+00	1.000000e+00	1.000000e+00	1.000000e+00	1.000000e+00	1.000000e+00	1.000000e+00	1.000000e+00	1.000000e+00	1.000000e+00	1.000000e+00	1.000000e+00	1.000000e+00	1.000000e+00	1.000000e+00	1.000000e+00	1.000000e+00	1.000000e+00	1.000000e+00	1.000000e+00	1.000000e+00	1.000000e+00	1.000000e+00	1.000000e+00	1.000000e+00	1.000000e+00	1.000000e+00	1.000000e+00	1.000000e+00	1.000000e+00	1.000000e+00	1.000000e+00	1.000000e+00	1.000000e+00	1.000000e+00	1.000000e+00	1.000000e+00	1.000000e+00	1.000000e+00	1.000000e+00	1.000000e+00	1.000000e+00	1.000000e+00	1.000000e+00	1.000000e+00	1.000000e+00	1.000000e+00	1.000000e+00	1.000000e+00	1.000000e+00	1.000000e+00	1.000000e+00	1.000000e+00	1.000000e+00	1.000000e+00	1.000000e+00	1.000000e+00	1.000000e+00	1.000000e+00	1.000000e+00	1.000000e+00	1.000000e+00	1.000000e+00	1.000000e+00	1.000000e+00	1.000000e+00	1.000000e+00	1.000000e+00	1.000000e+00	1.000000e+00	1.000000e+00	1.000000e+00	1.000000e+00	1.000000e+00	1.000000e+00	1.000000e+00	1.000000e+00	1.000000e+00	1.000000e+00	1.000000e+00	1.000000e+00	1.000000e+00	1.000000e+00	1.000000e+00	1.000000e+00	1.000000e+00	1.000000e+00	1.000000e+00	1.000000e+00	1.000000e+00	1.000000e+00	1.000000e+00	1.000000e+00	1.000000e+00	1.000000e+00	1.000000e+00	1.000000e+00	1.000000e+00	1.000000e+00	1.000000e+00	1.000000e+00	1.000000e+00	1.000000e+00	1.000000e+00	1.000000e+00	1.000000e+00	1.000000e+00	1.000000e+00	1.000000e+00	1.000000e+00	1.000000e+00	1.000000e+00	1.000000e+00	1.000000e+00	1.000000e+00	1.000000e+00	1.000000e+00	1.000000e+00	1.000000e+00	1.000000e+00	1.000000e+00	1.000000e+00	1.000000e+00	1.000000e+00	1.000000e+00	1.000000e+00	1.000000e+00	1.000000e+00	1.000000e+00	1.000000e+00	1.000000e+00	1.000000e+00	1.000000e+00	1.000000e+00	1.000000e+00	1.000000e+00	1.000000e+00	1.000000e+00	1.000000e+00	1.000000e+00	1.000000e+00	1.000000e+00	1.000000e+00	1.000000e+00	1.000000e+00	1.000000e+00	1.000000e+00	1.000000e+00	1.000000e+00	1.000000e+00	1.000000e+00	1.000000e+00	1.000000e+00	1.000000e+00	1.000000e+00	1.000000e+00	1.000000e+00	1.000000e+00	1.000000e+00	1.000000e+00	1.000000e+00	1.000000e+00	1.000000e+00	1.000000e+00	1.000000e+00	1.000000e+00	1.000000e+00	1.000000e+00	1.000000e+00	1.000000e+00	1.000000e+00	1.000000e+00	1.000000e+00	1.000000e+00	1.000000e+00	1.000000e+00	1.000000e+00	1.000000e+00	1.000000e+00	1.000000e+00	1.000000e+00	1.000000e+00	1.000000e+00	1.000000e+00	1.000000e+00	1.000000e+00	1.000000e+00	1.000000e+00	1.000000e+00	1.000000e+00	1.000000e+00	1.000000e+00	1.000000e+00	1.000000e+00	1.000000e+00	1.000000e+00	1.000000e+00	1.000000e+00	1.000000e+00	1.000000e+00	1.000000e+00	1.000000e+00	1.000000e+00	1.000000e+00	1.000000e+00	1.000000e+00	1.000000e+00	1.000000e+00	1.000000e+00	1.000000e+00	1.000000e+00	1.000000e+00	1.000000e+00	1.000000e+00	1.000000e+00	1.000000e+00	1.000000e+00	1.000000e+00	1.000000e+00	1.000000e+00	1.000000e+00	1.000000e+00	1.000000e+00	1.000000e+00	1.000000e+00	1.000000e+00	1.000000e+00	1.000000e+00	1.000000e+00	1.000000e+00	1.000000e+00	1.000000e+00	1.000000e+00	1.000000e+00	1.000000e+00	1.000000e+00	1.000000e+00	1.000000e+00	1.000000e+00	1.000000e+00	1.000000e+00	1.000000e+00	1.000000e+00	1.000000e+00	1.000000e+00	1.000000e+00	1.000000e+00	1.000000e+00	1.000000e+00	1.000000e+00	1.000000e+00	1.000000e+00	1.000000e+00	1.000000e+00	1.000000e+00	1.000000e+00	1.000000e+00	1.000000e+00	1.000000e+00	1.000000e+00	1.000000e+00	1.000000e+00	1.000000e+00	1.000000e+00	1.000000e+00	1.000000e+00	1.000000e+00	1.000000e+00	1.000000e+00	1.000000e+00	1.000000e+00	1.000000e+00	1.000000e+00	1.000000e+00	1.000000e+00	1.000000e+00	1.000000e+00	1.000000e+00	1.000000e+00	1.000000e+00	1.000000e+00	1.000000e+00	1.000000e+00	1.000000e+00	1.000000e+00	1.000000e+00	1.000000e+00	1.000000e+00	1.000000e+00	1.000000e+00	1.000000e+00	1.000000e+00	1.000000e+00	1.000000e+00	1.000000e+00	1.000000e+00	1.000000e+00	1.000000e+00	1.000000e+00	1.000000e+00	1.000000e+00	1.000000e+00	1.000000e+00	1.000000e+00	1.000000e+00	1.000000e+00	1.000000e+00	1.000000e+00	1.000000e+00	1.000000e+00	1.000000e+00	1.000000e+00	1.000000e+00	1.000000e+00	1.000000e+00	1.000000e+00	1.000000e+00	1.000000e+00	1.000000e+00	1.000000e+00	1.000000e+00	1.000000e+00	1.000000e+00	1.000000e+00	1.000000e+00	1.000000e+00	1.000000e+00	1.000000e+00	1.000000e+00	1.000000e+00	1.000000e+00	1.000000e+00	1.000000e+00	1.000000e+00	1.000000e+00	1.000000e+00	1.000000e+00	1.000000e+00	1.000000e+00	1.000000e+00	1.000000e+00	1.000000e+00	1.000000e+00	1.000000e+00	1.000000e+00	1.000000e+00	1.000000e+00	1.000000e+00	1.000000e+00	1.000000e+00	1.000000e+00	1.000000e+00	1.000000e+00	1.000000e+00	1.000000e+00	1.000000e+00	1.000000e+00	1.000000e+00	1.000000e+00	1.000000e+00	1.000000e+00	1.000000e+00	1.000000e+00	1.000000e+00	1.000000e+00	1.000000e+00	1.000000e+00	1.000000e+00	1.000000e+00	1.000000e+00	1.000000e+00	1.000000e+00	1.000000e+00	1.000000e+00	1.000000e+00	1.000000e+00	1.000000e+00	1.000000e+00	1.000000e+00	1.000000e+00	1.000000e+00	1.000000e+00	1.000000e+00	1.000000e+00	1.000000e+00	1.000000e+00	1.000000e+00	1.000000e+00	1.000000e+00	1.000000e+00	1.000000e+00	1.000000e+00	1.000000e+00	1.000000e+00	1.000000e+00	1.000000e+00	1.000000e+00	1.000000e+00	1.000000e+00	1.000000e+00	1.000000e+00	1.000000e+00	1.000000e+00	1.000000e+00	1.000000e+00	1.000000e+00	1.000000e+00	1.000000e+00	1.000000e+00	1.000000e+00	1.000000e+00	1.000000e+00	1.000000e+00	1.000000e+00	1.000000e+00	1.000000e+00	1.000000e+00	1.000000e+00	1.000000e+00	1.000000e+00	1.000000e+00	1.000000e+00	1.000000e+00	1.000000e+00	1.000000e+00	1.000000e+00	1.000000e+00	1.000000e+00	1.000000e+00	1.000000e+00	1.000000e+00	1.000000e+00	1.000000e+00	1.000000e+00	1.000000e+00	1.000000e+00	1.000000e+00	1.000000e+00	1.000000e+00	1.000000e+00	1.000000e+00	1.000000e+00	1.000000e+00	1.000000e+00	1.000000e+00	1.000000e+00	1.000000e+00	1.000000e+00	1.000000e+00	1.000000e+00	1.000000e+00	1.000000e+00	1.000000e+00	1.000001e+00	1.000001e+00	1.000001e+00	1.000000e+00	1.000000e+00	1.000000e+00	1.000001e+00	1.000001e+00	1.000001e+00	1.000000e+00	1.000000e+00	1.000000e+00	1.000000e+00	1.000000e+00	1.000000e+00	1.000000e+00	1.000000e+00	1.000000e+00	1.000000e+00	1.000000e+00	1.000000e+00	1.000000e+00	1.000000e+00	1.000000e+00	1.000000e+00	1.000000e+00	1.000000e+00	1.000000e+00	1.000000e+00	1.000000e+00	1.000000e+00	1.000000e+00	1.000000e+00	1.000000e+00	1.000000e+00	1.000000e+00	1.000000e+00	1.000000e+00	1.000000e+00	1.000000e+00	1.000000e+00	1.000000e+00	1.000000e+00	1.000000e+00	1.000000e+00	1.000000e+00	1.000000e+00	1.000000e+00	1.000000e+00	1.000000e+00	1.000000e+00	1.000000e+00	1.000000e+00	1.000000e+00	1.000000e+00	1.000000e+00	1.000000e+00	1.000000e+00	1.000000e+00	1.000000e+00	1.000000e+00	1.000000e+00	1.000000e+00	1.000000e+00	1.000000e+00	1.000000e+00	1.000000e+00	1.000000e+00	1.000000e+00	1.000000e+00	1.000000e+00	1.000000e+00	1.000000e+00	1.000000e+00	1.000000e+00	1.000000e+00	1.000000e+00	1.000000e+00	1.000000e+00	1.000000e+00	1.000000e+00	1.000000e+00	1.000000e+00	1.000000e+00	1.000000e+00	1.000000e+00	1.000000e+00	1.000000e+00	1.000000e+00	1.000000e+00	1.000000e+00	1.000000e+00	1.000000e+00	1.000000e+00	1.000000e+00	1.000000e+00	1.000000e+00	1.000000e+00	1.000001e+00	1.000011e+00	1.000087e+00	1.000361e+00	1.000622e+00	1.000259e+00	1.000077e+00	1.000090e+00	1.000077e+00	1.000259e+00	1.000622e+00	1.000361e+00	1.000087e+00	1.000011e+00	1.000001e+00	1.000000e+00	1.000000e+00	1.000000e+00	1.000000e+00	1.000000e+00	1.000000e+00	1.000000e+00	1.000000e+00	1.000000e+00	1.000000e+00	1.000000e+00	1.000000e+00	1.000000e+00	1.000000e+00	1.000000e+00	1.000000e+00	1.000000e+00	1.000000e+00	1.000000e+00	1.000000e+00	1.000000e+00	1.000000e+00	1.000000e+00	1.000000e+00	1.000000e+00	1.000000e+00	1.000000e+00	1.000000e+00	1.000000e+00	1.000000e+00	1.000000e+00	1.000000e+00	1.000000e+00	1.000000e+00	1.000000e+00	1.000000e+00	1.000000e+00	1.000000e+00	1.000000e+00	1.000000e+00	1.000000e+00	1.000000e+00	1.000000e+00	1.000000e+00	1.000000e+00	1.000000e+00	1.000000e+00	1.000000e+00	1.000000e+00	1.000000e+00	1.000000e+00	1.000000e+00	1.000000e+00	1.000000e+00	1.000000e+00	1.000000e+00	1.000000e+00	1.000000e+00	1.000000e+00	1.000000e+00	1.000000e+00	1.000000